# vtk DataFile Version 3.0
vtk output
ASCII
DATASET UNSTRUCTURED_GRID
POINTS 1825 double
1.000000e+02	0.000000e+00	0.0	9.917900e+01	1.278772e+01	0.0	9.672949e+01	2.536546e+01	0.0	9.269168e+01	3.752670e+01	0.0	8.713187e+01	4.907176e+01	0.0	8.014136e+01	5.981105e+01	0.0	7.183494e+01	6.956826e+01	0.0	6.234898e+01	7.818315e+01	0.0	5.183926e+01	8.551428e+01	0.0	4.047833e+01	9.144126e+01	0.0	2.845276e+01	9.586679e+01	0.0	1.595999e+01	9.871818e+01	0.0	3.205158e+00	9.994862e+01	0.0	-9.602303e+00	9.953791e+01	0.0	-2.225209e+01	9.749279e+01	0.0	-3.453651e+01	9.384684e+01	0.0	-4.625383e+01	8.865993e+01	0.0	-5.721167e+01	8.201723e+01	0.0	-6.723009e+01	7.402780e+01	0.0	-7.614460e+01	6.482284e+01	0.0	-8.380881e+01	5.455349e+01	0.0	-9.009689e+01	4.338837e+01	0.0	-9.490557e+01	3.151082e+01	0.0	-9.815592e+01	1.911586e+01	0.0	-9.979454e+01	6.407022e+00	0.0	-9.979454e+01	-6.407022e+00	0.0	-9.815592e+01	-1.911586e+01	0.0	-9.490557e+01	-3.151082e+01	0.0	-9.009689e+01	-4.338837e+01	0.0	-8.380881e+01	-5.455349e+01	0.0	-7.614460e+01	-6.482284e+01	0.0	-6.723009e+01	-7.402780e+01	0.0	-5.721167e+01	-8.201723e+01	0.0	-4.625383e+01	-8.865993e+01	0.0	-3.453651e+01	-9.384684e+01	0.0	-2.225209e+01	-9.749279e+01	0.0	-9.602303e+00	-9.953791e+01	0.0	3.205158e+00	-9.994862e+01	0.0	1.595999e+01	-9.871818e+01	0.0	2.845276e+01	-9.586679e+01	0.0	4.047833e+01	-9.144126e+01	0.0	5.183926e+01	-8.551428e+01	0.0	6.234898e+01	-7.818315e+01	0.0	7.183494e+01	-6.956826e+01	0.0	8.014136e+01	-5.981105e+01	0.0	8.713187e+01	-4.907176e+01	0.0	9.269168e+01	-3.752670e+01	0.0	9.672949e+01	-2.536546e+01	0.0	9.917900e+01	-1.278772e+01	0.0	0.000000e+00	0.000000e+00	0.0	3.106593e-03	3.917790e-03	0.0	6.341204e-03	7.968897e-03	0.0	1.074176e-02	1.106050e-02	0.0	1.532426e-02	1.422836e-02	0.0	2.054981e-02	1.668814e-02	0.0	2.597487e-02	1.920411e-02	0.0	3.178656e-02	2.134088e-02	0.0	3.781186e-02	2.351786e-02	0.0	4.412355e-02	2.553661e-02	0.0	5.065879e-02	2.758974e-02	0.0	5.744004e-02	2.961826e-02	0.0	6.444017e-02	3.172302e-02	0.0	7.166225e-02	3.390618e-02	0.0	7.909671e-02	3.620991e-02	0.0	8.676115e-02	3.858687e-02	0.0	9.469857e-02	4.090413e-02	0.0	1.029026e-01	4.317904e-02	0.0	1.114058e-01	4.529892e-02	0.0	1.201884e-01	4.731438e-02	0.0	1.292734e-01	4.912703e-02	0.0	1.386205e-01	5.089924e-02	0.0	1.482839e-01	5.231851e-02	0.0	1.581956e-01	5.377426e-02	0.0	1.684087e-01	5.480684e-02	0.0	1.788845e-01	5.573002e-02	0.0	1.896160e-01	5.648428e-02	0.0	2.006195e-01	5.671634e-02	0.0	2.118628e-01	5.695344e-02	0.0	2.233399e-01	5.677361e-02	0.0	2.350469e-01	5.642312e-02	0.0	2.469792e-01	5.606544e-02	0.0	2.591304e-01	5.569909e-02	0.0	2.714937e-01	5.532634e-02	0.0	2.840639e-01	5.532926e-02	0.0	2.968318e-01	5.555034e-02	0.0	3.097808e-01	5.588626e-02	0.0	3.228593e-01	5.710212e-02	0.0	3.361045e-01	5.833348e-02	0.0	3.494808e-01	5.980928e-02	0.0	3.629840e-01	6.146175e-02	0.0	3.766228e-01	6.309771e-02	0.0	3.904280e-01	6.430181e-02	0.0	4.043403e-01	6.551526e-02	0.0	4.183763e-01	6.599278e-02	0.0	4.325156e-01	6.589895e-02	0.0	4.467157e-01	6.570507e-02	0.0	4.609055e-01	6.431766e-02	0.0	4.751322e-01	6.292663e-02	0.0	4.893512e-01	6.127114e-02	0.0	5.035561e-01	5.942533e-02	0.0	5.177570e-01	5.761011e-02	0.0	5.319780e-01	5.616206e-02	0.0	5.461621e-01	5.471778e-02	0.0	5.603319e-01	5.382643e-02	0.0	5.744632e-01	5.334373e-02	0.0	5.885148e-01	5.291339e-02	0.0	6.024792e-01	5.306156e-02	0.0	6.163360e-01	5.320859e-02	0.0	6.300711e-01	5.343064e-02	0.0	6.436723e-01	5.370648e-02	0.0	6.571286e-01	5.395905e-02	0.0	6.704307e-01	5.389332e-02	0.0	6.835654e-01	5.382841e-02	0.0	6.965152e-01	5.348219e-02	0.0	7.092715e-01	5.289604e-02	0.0	7.218312e-01	5.231133e-02	0.0	7.341477e-01	5.117372e-02	0.0	7.462529e-01	5.005562e-02	0.0	7.580986e-01	4.861378e-02	0.0	7.696849e-01	4.690003e-02	0.0	7.810279e-01	4.513603e-02	0.0	7.920408e-01	4.285921e-02	0.0	8.028188e-01	4.063096e-02	0.0	8.132888e-01	3.814257e-02	0.0	8.235042e-01	3.564440e-02	0.0	8.334720e-01	3.317955e-02	0.0	8.431919e-01	3.075358e-02	0.0	8.526820e-01	2.844652e-02	0.0	8.619707e-01	2.638131e-02	0.0	8.710140e-01	2.437067e-02	0.0	8.798521e-01	2.260482e-02	0.0	8.884530e-01	2.092461e-02	0.0	8.968181e-01	1.933431e-02	0.0	9.049558e-01	1.786812e-02	0.0	9.128534e-01	1.644520e-02	0.0	9.205164e-01	1.508248e-02	0.0	9.279453e-01	1.376498e-02	0.0	9.351405e-01	1.247638e-02	0.0	9.421040e-01	1.120755e-02	0.0	9.488434e-01	9.978975e-03	0.0	9.553568e-01	8.759317e-03	0.0	9.616545e-01	7.580058e-03	0.0	9.677364e-01	6.417109e-03	0.0	9.736107e-01	5.289676e-03	0.0	9.792785e-01	4.179388e-03	0.0	9.847472e-01	3.099382e-03	0.0	9.900203e-01	2.042146e-03	0.0	9.951019e-01	1.004255e-03	0.0	1.000000e+00	0.000000e+00	0.0	9.950057e-01	2.349822e-04	0.0	9.898228e-01	4.322651e-04	0.0	9.844466e-01	5.780635e-04	0.0	9.788730e-01	6.793461e-04	0.0	9.730976e-01	7.563408e-04	0.0	9.671157e-01	7.755010e-04	0.0	9.609231e-01	7.722261e-04	0.0	9.545156e-01	7.033805e-04	0.0	9.478887e-01	6.191240e-04	0.0	9.410397e-01	4.388008e-04	0.0	9.339628e-01	2.524796e-04	0.0	9.266578e-01	-3.931961e-05	0.0	9.191185e-01	-3.649035e-04	0.0	9.113438e-01	-7.550240e-04	0.0	9.033329e-01	-1.255206e-03	0.0	8.950783e-01	-1.770610e-03	0.0	8.865902e-01	-2.472275e-03	0.0	8.778565e-01	-3.221898e-03	0.0	8.688840e-01	-4.095636e-03	0.0	8.596776e-01	-5.151857e-03	0.0	8.502221e-01	-6.243894e-03	0.0	8.405608e-01	-7.698861e-03	0.0	8.306511e-01	-9.191244e-03	0.0	8.205449e-01	-1.101891e-02	0.0	8.102119e-01	-1.299496e-02	0.0	7.996787e-01	-1.521519e-02	0.0	7.889534e-01	-1.770395e-02	0.0	7.780068e-01	-2.029711e-02	0.0	7.669070e-01	-2.325129e-02	0.0	7.555839e-01	-2.626489e-02	0.0	7.440418e-01	-2.933260e-02	0.0	7.322873e-01	-3.245475e-02	0.0	7.203143e-01	-3.557770e-02	0.0	7.080375e-01	-3.831957e-02	0.0	6.955688e-01	-4.110427e-02	0.0	6.828224e-01	-4.341377e-02	0.0	6.698161e-01	-4.529253e-02	0.0	6.566440e-01	-4.719526e-02	0.0	6.432099e-01	-4.810262e-02	0.0	6.296282e-01	-4.899434e-02	0.0	6.159061e-01	-4.975686e-02	0.0	6.020544e-01	-5.036066e-02	0.0	5.880952e-01	-5.096915e-02	0.0	5.740721e-01	-5.206950e-02	0.0	5.599704e-01	-5.320143e-02	0.0	5.458617e-01	-5.483264e-02	0.0	5.317740e-01	-5.707512e-02	0.0	5.176496e-01	-5.932345e-02	0.0	5.035957e-01	-6.209107e-02	0.0	4.895412e-01	-6.489779e-02	0.0	4.754690e-01	-6.756979e-02	0.0	4.613813e-01	-7.003765e-02	0.0	4.473302e-01	-7.249909e-02	0.0	4.331895e-01	-7.387549e-02	0.0	4.190953e-01	-7.509666e-02	0.0	4.050620e-01	-7.574854e-02	0.0	3.910920e-01	-7.548857e-02	0.0	3.772295e-01	-7.523060e-02	0.0	3.635341e-01	-7.411613e-02	0.0	3.499772e-01	-7.290453e-02	0.0	3.365823e-01	-7.154317e-02	0.0	3.233716e-01	-6.992875e-02	0.0	3.103274e-01	-6.833467e-02	0.0	2.974615e-01	-6.674831e-02	0.0	2.847820e-01	-6.518234e-02	0.0	2.722959e-01	-6.365413e-02	0.0	2.600092e-01	-6.218247e-02	0.0	2.479334e-01	-6.073608e-02	0.0	2.360721e-01	-5.934306e-02	0.0	2.244338e-01	-5.798561e-02	0.0	2.130245e-01	-5.665900e-02	0.0	2.018473e-01	-5.537784e-02	0.0	1.909087e-01	-5.412402e-02	0.0	1.802165e-01	-5.286022e-02	0.0	1.697718e-01	-5.160175e-02	0.0	1.595750e-01	-5.036437e-02	0.0	1.496511e-01	-4.896952e-02	0.0	1.399760e-01	-4.760965e-02	0.0	1.305766e-01	-4.611930e-02	0.0	1.214538e-01	-4.449161e-02	0.0	1.125781e-01	-4.290802e-02	0.0	1.040268e-01	-4.098408e-02	0.0	9.572364e-02	-3.908611e-02	0.0	8.769420e-02	-3.710988e-02	0.0	7.994919e-02	-3.500300e-02	0.0	7.243730e-02	-3.295954e-02	0.0	6.521595e-02	-3.076934e-02	0.0	5.822186e-02	-2.864015e-02	0.0	5.147561e-02	-2.649524e-02	0.0	4.495936e-02	-2.437862e-02	0.0	3.868881e-02	-2.223450e-02	0.0	3.264803e-02	-2.009670e-02	0.0	2.688763e-02	-1.782718e-02	0.0	2.136186e-02	-1.553868e-02	0.0	1.618160e-02	-1.298404e-02	0.0	1.130750e-02	-1.029111e-02	0.0	6.744604e-03	-7.448258e-03	0.0	2.774106e-03	-4.111167e-03	0.0	1.245206e-01	-5.194156e-02	0.0	1.280294e-01	-6.014925e-02	0.0	1.335235e-01	-5.308215e-02	0.0	8.626912e+01	2.664164e+01	0.0	8.150128e+01	3.572377e+01	0.0	7.481008e+01	2.503037e+01	0.0	7.782561e+01	-1.263004e+01	0.0	7.606081e+01	-2.408267e+01	0.0	8.760823e+01	-1.781067e+01	0.0	8.686988e+01	-4.780711e+00	0.0	3.958749e+01	3.536416e+01	0.0	3.461045e+01	2.574706e+01	0.0	4.540738e+01	2.951767e+01	0.0	7.202411e+01	3.416699e+01	0.0	6.933597e+01	-3.516519e+01	0.0	7.622950e+01	-4.317008e+01	0.0	8.163493e+01	-3.583534e+01	0.0	8.719746e+01	-2.792431e+01	0.0	5.342897e+01	2.351911e+01	0.0	4.325694e+01	1.945192e+01	0.0	5.153659e+01	1.331180e+01	0.0	6.402518e+01	-5.185964e+01	0.0	6.077569e+01	-5.937399e+01	0.0	6.891347e+01	-5.984398e+01	0.0	6.875586e+01	5.927455e+01	0.0	7.272928e+01	5.066306e+01	0.0	5.813299e+01	6.362918e+01	0.0	4.380085e+01	-6.333064e+01	0.0	4.482166e+01	-7.462100e+01	0.0	5.338268e+01	-7.187662e+01	0.0	6.856349e+01	-4.457969e+01	0.0	4.731224e+01	7.221549e+01	0.0	2.959490e+01	6.472197e+01	0.0	2.440297e+01	5.726169e+01	0.0	3.341294e+01	5.660142e+01	0.0	5.355537e+01	-5.412976e+01	0.0	5.495989e+01	-6.332018e+01	0.0	2.515435e+01	7.388320e+01	0.0	3.795987e+01	8.029511e+01	0.0	2.458129e+01	8.700872e+01	0.0	3.663718e+01	-7.205032e+01	0.0	2.629832e+01	-7.644029e+01	0.0	3.842777e+01	-8.083044e+01	0.0	-5.085473e+00	6.246340e+01	0.0	-6.424941e+00	5.165210e+01	0.0	3.749665e+00	5.354395e+01	0.0	9.973713e+00	8.979598e+01	0.0	1.366301e+01	7.932198e+01	0.0	2.306230e+01	4.564355e+01	0.0	1.523679e+01	5.493666e+01	0.0	1.044457e+01	4.666617e+01	0.0	1.010733e+00	-1.269591e-03	0.0	1.017079e+00	-9.294801e-04	0.0	1.012554e+00	4.063864e-03	0.0	8.364214e-01	-1.641538e-02	0.0	8.275479e-01	-1.657074e-02	0.0	8.308723e-01	-2.515069e-02	0.0	8.941989e-01	-5.709014e-02	0.0	8.754039e-01	-5.200670e-02	0.0	8.760390e-01	-7.569514e-02	0.0	4.388990e-01	1.442950e-01	0.0	4.538920e-01	1.830108e-01	0.0	4.120191e-01	1.686531e-01	0.0	4.092535e-01	1.278277e-01	0.0	3.844457e-01	1.139304e-01	0.0	4.020369e-01	1.026191e-01	0.0	9.242141e-01	1.865661e-02	0.0	9.288282e-01	1.926215e-02	0.0	9.088421e-01	3.998510e-02	0.0	9.073615e-01	5.075480e-02	0.0	9.000293e-01	4.165116e-02	0.0	9.078148e-01	-7.688931e-03	0.0	7.610705e-01	-4.933258e-02	0.0	7.519836e-01	-3.917553e-02	0.0	7.501377e-01	-5.155057e-02	0.0	7.391111e-01	-2.444497e-01	0.0	7.188580e-01	-1.707137e-01	0.0	6.652246e-01	-2.1
[...]
POINT_DATA 1825

SCALARS Density double 1
LOOKUP_TABLE default
1.291830e+00	1.291833e+00	1.292065e+00	1.292153e+00	1.292084e+00	1.292016e+00	1.291960e+00	1.291897e+00	1.291820e+00	1.291746e+00	1.291688e+00	1.291656e+00	1.291658e+00	1.291719e+00	1.291814e+00	1.291915e+00	1.292008e+00	1.292079e+00	1.292136e+00	1.292178e+00	1.292211e+00	1.292233e+00	1.292251e+00	1.292267e+00	1.292279e+00	1.292291e+00	1.292304e+00	1.292319e+00	1.292337e+00	1.292361e+00	1.292391e+00	1.292430e+00	1.292482e+00	1.292549e+00	1.292629e+00	1.292715e+00	1.292809e+00	1.292881e+00	1.292895e+00	1.292874e+00	1.292821e+00	1.292748e+00	1.292667e+00	1.292581e+00	1.292501e+00	1.292448e+00	1.292436e+00	1.292340e+00	1.292084e+00	1.553684e+00	1.217024e+00	1.184705e+00	1.083015e+00	1.040022e+00	1.007898e+00	1.021078e+00	1.035713e+00	1.064069e+00	1.084455e+00	1.105239e+00	1.120446e+00	1.129500e+00	1.127331e+00	1.111032e+00	1.076791e+00	1.036310e+00	9.972745e-01	9.607692e-01	9.267086e-01	9.008888e-01	8.684288e-01	8.428854e-01	8.144320e-01	7.806926e-01	7.637334e-01	7.246144e-01	6.961488e-01	6.774827e-01	6.517430e-01	6.467646e-01	6.544155e-01	6.630967e-01	6.910400e-01	7.292570e-01	7.516543e-01	8.169592e-01	8.915972e-01	9.404592e-01	1.009010e+00	1.039161e+00	1.013034e+00	9.735055e-01	9.192895e-01	8.437525e-01	8.084025e-01	7.504120e-01	6.958286e-01	6.772504e-01	6.793223e-01	8.158977e-01	1.110608e+00	1.220081e+00	1.232555e+00	1.235040e+00	1.220265e+00	1.215133e+00	1.201267e+00	1.172786e+00	1.153802e+00	1.129490e+00	1.096064e+00	1.069939e+00	1.049537e+00	1.021984e+00	1.009796e+00	9.859241e-01	9.755449e-01	9.869105e-01	9.956701e-01	1.022940e+00	1.044625e+00	1.080095e+00	1.122457e+00	1.150793e+00	1.185388e+00	1.210728e+00	1.231367e+00	1.251675e+00	1.261049e+00	1.268385e+00	1.275387e+00	1.275515e+00	1.279997e+00	1.281724e+00	1.282328e+00	1.285087e+00	1.287043e+00	1.289543e+00	1.293964e+00	1.298004e+00	1.302993e+00	1.308672e+00	1.314377e+00	1.321296e+00	1.329747e+00	1.334971e+00	1.351698e+00	1.380198e+00	1.330752e+00	1.433167e+00	1.415881e+00	1.416085e+00	1.416913e+00	1.417559e+00	1.418598e+00	1.418987e+00	1.420704e+00	1.420972e+00	1.421899e+00	1.422881e+00	1.422068e+00	1.425017e+00	1.423997e+00	1.426397e+00	1.427166e+00	1.425789e+00	1.429209e+00	1.426550e+00	1.429946e+00	1.428405e+00	1.426083e+00	1.424836e+00	1.418394e+00	1.414954e+00	1.403946e+00	1.396756e+00	1.382895e+00	1.361005e+00	1.344055e+00	1.320911e+00	1.288477e+00	1.265051e+00	1.235485e+00	1.200646e+00	1.197665e+00	1.171362e+00	1.177713e+00	1.213465e+00	1.228719e+00	1.253826e+00	1.287906e+00	1.303226e+00	1.315458e+00	1.331838e+00	1.319906e+00	1.310329e+00	1.294238e+00	1.256536e+00	1.223810e+00	1.193839e+00	1.081468e+00	9.370907e-01	8.821289e-01	8.740069e-01	9.315053e-01	9.814942e-01	1.035877e+00	1.097866e+00	1.128844e+00	1.165331e+00	1.198611e+00	1.220658e+00	1.238493e+00	1.252708e+00	1.263155e+00	1.271711e+00	1.279131e+00	1.284451e+00	1.289687e+00	1.293310e+00	1.294462e+00	1.296238e+00	1.297964e+00	1.294245e+00	1.295674e+00	1.297520e+00	1.295904e+00	1.305534e+00	1.303837e+00	1.312347e+00	1.332501e+00	1.341295e+00	1.360446e+00	1.373905e+00	1.389777e+00	1.409392e+00	1.424286e+00	1.439112e+00	1.453807e+00	1.466454e+00	1.483497e+00	1.501317e+00	1.520367e+00	1.554397e+00	1.584335e+00	1.600717e+00	1.690528e+00	1.311885e+00	1.316177e+00	1.307347e+00	1.292099e+00	1.292099e+00	1.292068e+00	1.292190e+00	1.292359e+00	1.292242e+00	1.292021e+00	1.291791e+00	1.291817e+00	1.291913e+00	1.292081e+00	1.292476e+00	1.292458e+00	1.292417e+00	1.292365e+00	1.292043e+00	1.291972e+00	1.291975e+00	1.292558e+00	1.292608e+00	1.292559e+00	1.291961e+00	1.292003e+00	1.291887e+00	1.292771e+00	1.292780e+00	1.292705e+00	1.292495e+00	1.291798e+00	1.291612e+00	1.291508e+00	1.291672e+00	1.292646e+00	1.292668e+00	1.291599e+00	1.291716e+00	1.291647e+00	1.292854e+00	1.292931e+00	1.292838e+00	1.291379e+00	1.291210e+00	1.291195e+00	1.291611e+00	1.291554e+00	1.291416e+00	1.291331e+00	1.291089e+00	1.365529e+00	1.354775e+00	1.348737e+00	1.421263e+00	1.418767e+00	1.415422e+00	1.407650e+00	1.409452e+00	1.399254e+00	9.707593e-01	1.014099e+00	1.021357e+00	1.019828e+00	1.050979e+00	9.938893e-01	1.286955e+00	1.289030e+00	1.283533e+00	1.282121e+00	1.279879e+00	1.423651e+00	1.345872e+00	1.334336e+00	1.328900e+00	1.311221e+00	1.299437e+00	1.289747e+00	1.424604e+00	1.425323e+00	1.311628e+00	1.336734e+00	9.100145e-01	9.523982e-01	9.289676e-01	9.760382e-01	1.016295e+00	9.772061e-01	9.594439e-01	9.641769e-01	1.059023e+00	1.012000e+00	1.036502e+00	1.040581e+00	7.669609e-01	9.908017e-01	8.371231e-01	8.336278e-01	7.726730e-01	9.021967e-01	9.698123e-01	9.343835e-01	1.004186e+00	9.097524e-01	9.776275e-01	8.233998e-01	7.677417e-01	8.279471e-01	7.193807e-01	7.851643e-01	7.059748e-01	6.796151e-01	7.041003e-01	6.974558e-01	7.270073e-01	8.380988e-01	1.128639e+00	1.210084e+00	1.120413e+00	8.704135e-01	9.672732e-01	9.069198e-01	7.960864e-01	7.479415e-01	7.234084e-01	6.968797e-01	1.026456e+00	9.561635e-01	9.994468e-01	1.164227e+00	1.178206e+00	1.180708e+00	1.180516e+00	1.220948e+00	1.246190e+00	1.062711e+00	1.060056e+00	1.081304e+00	1.076603e+00	1.125978e+00	1.098508e+00	1.124537e+00	1.104512e+00	1.095203e+00	1.194972e+00	1.043511e+00	1.023896e+00	1.022820e+00	1.000117e+00	1.007896e+00	1.025433e+00	1.207079e+00	1.204838e+00	1.212645e+00	1.221039e+00	1.214010e+00	1.136812e+00	1.028521e+00	1.135569e+00	1.225904e+00	1.222672e+00	1.290929e+00	1.290482e+00	1.290922e+00	1.094991e+00	1.070527e+00	1.117150e+00	1.081023e+00	1.397917e+00	1.402494e+00	1.394336e+00	1.420169e+00	1.419345e+00	1.417128e+00	1.414502e+00	1.414688e+00	1.285221e+00	1.288842e+00	1.281329e+00	1.270444e+00	1.271854e+00	1.385566e+00	1.370800e+00	1.383024e+00	1.422066e+00	1.420892e+00	1.419388e+00	1.420996e+00	1.308677e+00	1.306130e+00	1.312243e+00	1.290185e+00	1.320425e+00	1.315557e+00	1.278814e+00	1.280883e+00	1.259497e+00	1.277804e+00	1.292869e+00	1.296285e+00	1.296613e+00	1.298275e+00	1.295440e+00	1.296651e+00	1.412646e+00	1.406158e+00	1.386010e+00	1.391445e+00	1.399513e+00	1.399088e+00	1.385080e+00	1.397531e+00	1.391165e+00	1.288407e+00	1.264099e+00	1.264402e+00	1.284122e+00	1.201413e+00	1.219848e+00	1.421254e+00	1.423245e+00	1.425552e+00	9.253094e-01	1.014990e+00	1.003440e+00	1.255810e+00	1.237915e+00	1.249119e+00	1.254837e+00	1.225215e+00	1.238661e+00	1.118997e+00	1.247696e+00	9.334403e-01	9.036099e-01	1.296471e+00	1.308210e+00	1.309425e+00	1.273969e+00	1.248156e+00	1.242823e+00	1.151598e+00	1.111281e+00	1.109738e+00	1.307984e+00	1.309071e+00	1.242056e+00	1.258093e+00	1.258062e+00	1.325613e+00	1.333337e+00	1.347799e+00	1.336399e+00	1.337472e+00	1.269184e+00	1.262920e+00	1.269519e+00	1.352272e+00	1.347135e+00	1.398199e+00	1.356300e+00	1.348670e+00	1.353342e+00	1.350972e+00	1.346773e+00	1.373939e+00	1.364685e+00	1.283133e+00	1.278378e+00	1.287642e+00	1.300372e+00	1.295867e+00	1.294030e+00	1.296445e+00	1.298351e+00	1.274145e+00	1.281066e+00	1.262924e+00	1.180273e+00	1.153929e+00	1.132550e+00	1.220442e+00	1.217884e+00	1.236671e+00	1.149508e+00	1.182241e+00	1.291361e+00	1.235792e+00	1.241259e+00	1.196503e+00	1.154240e+00	1.120411e+00	1.018796e+00	8.109336e-01	8.003515e-01	1.208331e+00	1.099479e+00	1.228970e+00	1.291793e+00	1.291698e+00	9.753421e-01	7.626253e-01	7.598425e-01	8.213329e-01	8.418564e-01	6.834932e-01	6.643429e-01	7.943902e-01	8.106826e-01	7.583565e-01	6.642370e-01	6.717428e-01	1.291656e+00	7.119611e-01	7.178299e-01	9.754893e-01	1.095682e+00	1.081964e+00	1.281095e+00	1.285197e+00	1.282106e+00	7.919197e-01	9.321208e-01	8.905692e-01	9.134500e-01	8.394517e-01	1.291868e+00	1.045329e+00	1.058690e+00	1.086559e+00	1.019222e+00	1.104968e+00	1.085210e+00	1.040803e+00	1.096357e+00	1.068305e+00	1.117375e+00	1.130400e+00	1.291984e+00	1.138790e+00	1.144519e+00	1.135844e+00	1.177213e+00	1.158411e+00	1.169582e+00	1.292124e+00	1.291395e+00	1.290842e+00	1.291602e+00	1.292017e+00	1.291218e+00	1.292147e+00	1.292357e+00	1.292091e+00	1.292149e+00	1.292100e+00	1.080266e+00	1.092619e+00	1.292182e+00	1.292127e+00	1.292198e+00	1.292252e+00	1.292234e+00	1.292236e+00	1.292173e+00	1.292220e+00	1.292293e+00	1.292315e+00	1.292326e+00	1.292339e+00	1.292365e+00	1.292346e+00	1.292373e+00	1.292356e+00	1.292507e+00	1.292461e+00	1.292420e+00	1.292253e+00	1.292357e+00	1.292542e+00	1.293867e+00	1.293812e+00	1.294241e+00	1.292537e+00	1.299313e+00	1.303077e+00	1.297626e+00	1.292603e+00	1.292702e+00	1.296933e+00	1.300841e+00	1.293453e+00	1.292845e+00	1.292691e+00	1.292788e+00	1.364478e+00	1.345364e+00	1.356036e+00	1.319820e+00	1.332535e+00	1.324981e+00	1.365548e+00	1.352078e+00	1.342182e+00	1.497187e+00	1.605163e+00	1.603048e+00	1.642523e+00	1.604006e+00	1.558652e+00	1.566668e+00	1.578737e+00	1.544052e+00	1.569065e+00	1.553454e+00	1.531001e+00	1.523529e+00	1.293064e+00	1.293017e+00	1.293089e+00	1.546557e+00	1.424446e+00	1.440630e+00	1.424827e+00	1.418684e+00	1.414094e+00	1.384400e+00	1.406141e+00	1.398867e+00	1.449975e+00	1.411209e+00	1.421989e+00	1.292908e+00	1.384390e+00	1.405947e+00	1.387703e+00	1.393830e+00	1.371748e+00	1.341811e+00	1.347665e+00	1.371233e+00	1.361024e+00	1.326367e+00	1.422807e+00	1.420220e+00	1.423111e+00	1.418212e+00	1.421316e+00	1.240481e+00	1.240644e+00	1.218867e+00	1.203608e+00	1.193990e+00	1.215833e+00	1.240170e+00	1.269877e+00	1.308100e+00	1.314957e+00	1.298517e+00	1.299904e+00	1.305329e+00	1.320535e+00	1.307717e+00	1.300244e+00	1.263547e+00	1.066969e+00	1.091674e+00	1.111423e+00	1.292935e+00	1.292885e+00	1.188342e+00	1.316308e+00	1.314841e+00	1.322016e+00	1.276054e+00	1.301743e+00	1.314381e+00	1.287118e+00	1.252931e+00	1.292959e+00	1.255835e+00	1.283371e+00	1.272344e+00	1.268601e+00	1.262888e+00	1.303458e+00	1.306531e+00	1.303659e+00	1.279964e+00	1.286805e+00	1.285775e+00	1.274617e+00	1.286540e+00	1.276435e+00	1.292269e+00	1.291553e+00	1.289728e+00	1.291194e+00	1.137317e+00	1.292042e+00	1.292022e+00	1.292944e+00	1.292944e+00	1.293633e+00	1.418335e+00	1.293640e+00	1.293744e+00	1.294755e+00	1.292567e+00	1.292760e+00	1.292696e+00	1.291878e+00	1.291518e+00	1.291792e+00	1.293596e+00	1.292749e+00	1.292623e+00	1.291697e+00	1.291966e+00	1.291887e+00	1.292034e+00	1.291980e+00	1.292497e+00	1.292109e+00	1.291986e+00	1.292106e+00	1.293310e+00	1.293260e+00	1.291996e+00	1.292119e+00	1.292123e+00	1.292102e+00	1.292125e+00	1.296279e+00	1.295517e+00	1.294504e+00	1.291216e+00	1.291518e+00	1.292356e+00	1.291749e+00	1.289389e+00	1.290453e+00	1.288951e+00	1.287370e+00	1.287552e+00	1.292801e+00	1.292623e+00	1.292525e+00	1.292935e+00	1.292717e+00	1.292852e+00	1.292304e+00	1.292315e+00	1.292331e+00	1.292210e+00	1.291994e+00	1.291623e+00	1.291565e+00	1.291515e+00	1.293281e+00	1.293301e+00	1.293186e+00	1.292048e+00	1.291991e+00	1.291926e+00	1.291655e+00	1.291773e+00	1.291873e+00	1.291922e+00	1.291977e+00	1.292280e+00	1.292447e+00	1.293138e+00	1.293222e+00	1.292971e+00	1.292481e+00	1.292441e+00	1.292390e+00	1.291500e+00	1.292494e+00	1.292352e+00	1.292936e+00	1.214699e+00	1.199280e+00	1.225219e+00	1.147603e+00	1.152930e+00	1.155402e+00	1.290062e+00	1.365839e+00	1.304601e+00	1.321922e+00	1.293007e+00	1.292981e+00	1.292250e+00	1.293105e+00	1.293163e+00	1.293030e+00	1.291679e+00	1.291506e+00	1.292043e+00	1.292296e+00	1.292287e+00	1.292259e+00	1.292435e+00	1.292518e+00	1.291205e+00	1.291360e+00	1.293055e+00	1.293273e+00	1.292027e+00	1.292614e+00	1.141735e+00	1.152753e+00	1.089445e+00	1.295895e+00	1.295195e+00	1.296828e+00	1.290824e+00	1.290207e+00	1.293133e+00	1.293501e+00	1.294000e+00	1.289867e+00	1.070532e+00	1.046819e+00	1.291887e+00	1.292014e+00	1.292451e+00	1.291865e+00	1.291327e+00	1.292233e+00	1.291960e+00	1.292352e+00	1.292264e+00	1.292384e+00	1.292407e+00	1.292041e+00	1.291911e+00	1.292933e+00	1.291476e+00	1.292892e+00	1.291989e+00	1.291978e+00	1.292988e+00	1.291977e+00	1.292066e+00	1.292493e+00	1.292544e+00	1.292629e+00	1.292662e+00	1.292749e+00	1.292284e+00	1.293079e+00	1.293087e+00	1.292980e+00	1.291908e+00	1.291626e+00	1.291482e+00	1.291474e+00	1.292041e+00	1.292041e+00	1.292749e+00	1.292882e+00	1.292787e+00	1.291747e+00	1.291671e+00	1.291917e+00	1.293473e+00	1.292495e+00	1.292580e+00	1.293056e+00	1.294367e+00	1.303466e+00	1.307472e+00	1.291370e+00	1.292589e+00	1.292524e+00	1.291829e+00	1.291735e+00	1.291748e+00	1.291922e+00	1.292924e+00	1.292889e+00	1.291789e+00	1.291859e+00	1.291787e+00	1.291710e+00	1.292397e+00	1.292453e+00	1.292614e+00	1.291553e+00	1.292594e+00	8.302697e-01	8.184747e-01	1.294825e+00	1.293123e+00	1.289994e+00	1.292473e+00	1.294278e+00	1.296126e+00	1.289435e+00	1.290816e+00	1.290853e+00	1.291271e+00	1.291434e+00	1.291943e+00	1.291284e+00	1.298674e+00	1.297153e+00	1.298626e+00	1.290679e+00	1.288128e+00	1.290913e+00	1.369899e+00	1.347379e+00	1.353834e+00	1.294726e+00	1.287328e+00	1.291102e+00	1.290651e+00	1.299794e+00	1.290895e+00	1.290111e+00	1.293377e+00	1.295598e+00	1.290658e+00	1.292729e+00	1.292836e+00	1.294848e+00	1.297277e+00	1.295224e+00	1.269238e+00	1.291403e+00	1.289383e+00	1.286837e+00	1.295403e+00	1.291323e+00	1.291353e+00	1.298020e+00	1.292864e+00	1.300880e+00	1.419396e+00	1.288263e+00	1.293313e+00	1.291055e+00	1.289979e+00	1.287391e+00	1.273655e+00	1.280080e+00	1.285313e+00	1.300260e+00	1.301815e+00	1.297761e+00	1.300818e+00	1.293839e+00	1.299659e+00	1.302917e+00	1.291281e+00	1.283869e+00	1.266217e+00	1.263315e+00	1.245355e+00	1.294756e+00	1.291444e+00	1.288973e+00	1.309047e+00	1.304793e+00	1.303247e+00	1.286074e+00	1.280622e+00	1.290931e+00	1.294176e+00	1.296027e+00	1.300935e+00	1.404791e+00	1.395677e+00	1.399160e+00	1.287875e+00	1.185208e+00	1.157004e+00	1.287875e+00	1.301169e+00	1.295730e+00	1.271438e+00	1.264832e+00	1.187239e+00	1.227630e+00	1.238149e+00	1.289382e+00	1.369879e+00	1.312045e+00	1.311064e+00	1.309338e+00	1.279164e+00	1.262656e+00	1.305176e+00	1.311689e+00	1.306629e+00	1.315251e+00	1.292840e+00	1.303503e+00	1.298400e+00	1.308341e+00	1.415909e+00	1.416022e+00	1.417034e+00	1.303560e+00	1.307636e+00	1.305116e+00	1.310659e+00	1.294235e+00	1.069045e+00	1.319666e+00	1.312980e+00	1.216844e+00	1.293465e+00	1.289586e+00	1.298492e+00	1.312798e+00	1.311758e+00	1.320727e+00	1.288310e+00	1.276190e+00	1.283995e+00	1.449734e+00	1.474705e+00	1.444815e+00	1.252413e+00	1.338324e+00	1.334203e+00	1.154976e+00	1.248129e+00	1.289746e+00	1.292943e+00	1.308246e+00	1.352947e+00	1.340970e+00	1.338586e+00	1.316573e+00	1.306293e+00	1.169158e+00	1.331732e+00	1.272165e+00	1.234532e+00	1.279302e+00	1.120907e+00	1.051712e+00	1.145553e+00	1.321026e+00	1.292646e+00	1.292882e+00	1.307698e+00	1.315286e+00	1.308611e+00	1.308253e+00	1.326228e+00	1.371554e+00	1.349230e+00	1.323333e+00	1.319659e+00	1.299880e+00	1.262991e+00	1.314622e+00	1.328967e+00	1.190599e+00	1.260617e+00	6.649923e-01	1.301374e+00	1.330528e+00	1.337530e+00	1.305100e+00	1.335591e+00	1.293656e+00	1.311751e+00	1.315842e+00	1.330232e+00	1.338466e+00	1.330132e+00	1.327289e+00	1.200852e+00	7.161108e-01	6.915928e-01	1.275567e+00	1.294706e+00	1.476488e+00	1.536939e+00	1.364739e+00	1.369863e+00	1.350478e+00	1.297670e+00	1.293188e+00	1.317808e+00	1.307401e+00	1.325686e+00	1.303133e+00	1.175716e+00	1.079353e+00	1.179592e+00	1.293925e+00	1.304131e+00	1.293919e+00	1.317504e+00	1.289759e+00	1.295088e+00	1.404968e+00	1.410917e+00	1.408360e+00	1.342250e+00	1.278491e+00	1.384213e+00	1.309240e+00	1.341470e+00	1.323231e+00	1.267758e+00	1.241158e+00	1.250057e+00	1.302504e+00	9.714875e-01	8.990547e-01	1.000237e+00	1.018967e+00	1.395417e+00	1.424524e+00	1.417698e+00	1.383411e+00	7.947932e-01	7.463720e-01	1.319579e+00	1.390548e+00	1.286160e+00	1.286940e+00	1.303874e+00	1.162673e+00	1.159519e+00	1.175447e+00	1.261539e+00	1.403478e+00	1.415926e+00	1.416272e+00	1.299980e+00	1.301188e+00	1.274176e+00	1.342349e+00	1.356812e+00	1.362044e+00	1.351716e+00	1.307730e+00	1.302706e+00	1.241577e+00	1.259749e+00	1.212348e+00	8.991306e-01	1.178933e+00	1.309866e+00	1.259783e+00	1.299734e+00	1.287965e+00	1.374802e+00	1.396986e+00	1.354516e+00	1.424517e+00	1.398436e+00	1.319900e+00	1.309293e+00	1.316332e+00	1.303746e+00	1.330633e+00	1.030866e+00	1.009124e+00	1.106565e+00	1.191512e+00	1.059992e+00	9.656799e-01	1.214891e+00	1.181738e+00	1.204730e+00	1.086992e+00	1.127996e+00	1.318571e+00	1.372202e+00	1.368685e+00	1.361194e+00	1.350342e+00	1.332145e+00	1.365340e+00	1.303094e+00	1.277728e+00	1.275696e+00	1.082204e+00	1.173932e+00	1.160979e+00	1.385303e+00	1.127491e+00	1.310984e+00	1.316361e+00	1.385464e+00	1.407583e+00	1.404840e+00	1.303332e+00	1.296264e+00	1.202488e+00	1.277620e+00	1.279080e+00	1.306651e+00	1.193644e+00	1.234988e+00	1.251730e+00	1.246168e+00	1.403301e+00	1.617373e+00	1.388936e+00	1.180750e+00	1.343895e+00	9.315363e-01	9.192984e-01	9.813401e-01	7.559459e-01	7.191169e-01	7.636689e-01	1.330368e+00	1.348711e+00	1.334096e+00	1.336189e+00	1.342593e+00	1.361553e+00	1.276026e+00	1.393645e+00	1.414485e+00	1.125176e+00	1.097828e+00	1.281431e+00	1.297144e+00	1.114533e+00	1.208468e+00	1.251231e+00	1.262520e+00	1.305804e+00	1.289351e+00	1.297160e+00	1.445326e+00	1.363711e+00	1.284256e+00	1.231918e+00	1.271305e+00	1.398430e+00	1.454905e+00	1.413178e+00	1.413474e+00	1.064832e+00	1.150664e+00	1.145982e+00	1.197800e+00	1.337149e+00	1.363758e+00	1.356569e+00	1.393835e+00	1.390129e+00	1.401786e+00	1.282949e+00	7.239158e-01	6.737372e-01	6.866262e-01	6.733199e-01	9.804718e-01	1.164639e+00	9.116638e-01	1.323342e+00	1.324940e+00	1.347653e+00	1.359794e+00	1.425913e+00	1.315229e+00	9.501321e-01	9.323093e-01	1.020632e+00	9.887717e-01	1.269598e+00	1.366849e+00	1.356129e+00	1.437911e+00	1.288113e+00	1.280954e+00	1.279717e+00	1.285829e+00	1.296377e+00	1.314528e+00	1.308470e+00	1.324360e+00	1.216160e+00	1.325930e+00	1.189839e+00	1.313866e+00	1.329423e+00	1.327423e+00	1.321378e+00	1.364142e+00	1.396400e+00	1.213841e+00	1.135294e+00	1.122919e+00	1.063809e+00	1.064961e+00	1.039047e+00	1.087575e+00	1.115329e+00	1.108994e+00	1.262484e+00	1.277299e+00	1.297608e+00	1.307201e+00	1.281160e+00	1.135042e+00	1.150919e+00	1.170771e+00	1.182088e+00	1.139458e+00	1.447942e+00	1.422276e+00	1.418181e+00	1.415129e+00	1.391448e+00	1.383407e+00	1.411457e+00	1.414432e+00	1.415497e+00	1.397851e+00	1.182719e+00	1.171503e+00	1.153664e+00	9.325782e-01	9.528569e-01	1.373510e+00	1.365695e+00	1.353027e+00	1.041241e+00	1.152952e+00	1.146324e+00	1.273833e+00	8.604647e-01	7.816303e-01	8.154783e-01	8.799303e-01	1.197467e+00	1.455299e+00	1.271390e+00	1.219263e+00	1.231779e+00	1.196868e+00	1.229624e+00	1.057443e+00	1.303913e+00	1.302549e+00	1.264534e+00	8.587527e-01	1.430176e+00	1.408206e+00	1.507045e+00	1.510444e+00	1.380949e+00	1.407728e+00	1.398267e+00	1.403410e+00	1.063101e+00	1.345037e+00	1.371145e+00	1.371815e+00	7.446922e-01	1.033392e+00	6.954561e-01	7.790595e-01	8.614499e-01	1.382605e+00	1.259984e+00	1.311880e+00	1.285282e+00	1.099084e+00	1.054484e+00	1.009103e+00	1.186644e+00	1.371524e+00	1.086982e+00	1.157512e+00	1.253738e+00	1.240736e+00	1.225114e+00	1.244959e+00	1.228162e+00	7.108482e-01	1.319330e+00	1.334583e+00	1.296800e+00	1.298241e+00	1.261885e+00	1.245023e+00	1.258543e+00	1.197626e+00	1.233705e+00	1.286324e+00	1.261529e+00	1.250549e+00	1.302217e+00	1.106886e+00	1.053049e+00	1.351769e+00	1.326165e+00	6.752296e-01	8.271270e-01	1.017446e+00	1.036157e+00	1.504496e+00	1.475328e+00	1.472229e+00	1.420827e+00	1.407304e+00	1.414890e+00	1.167073e+00	1.187907e+00	1.197584e+00	1.375425e+00	1.327004e+00	1.495916e+00	1.484476e+00	9.580455e-01	9.822926e-01	1.335859e+00	1.342378e+00	8.305037e-01	1.066707e+00	1.304258e+00	1.296941e+00	1.297976e+00	6.717449e-01	6.538868e-01	6.579747e-01	1.273536e+00	1.089901e+00	1.441423e+00	1.127225e+00	1.408033e+00	1.403603e+00	1.422129e+00	1.423250e+00	1.381264e+00	8.676204e-01	9.605420e-01	1.258987e+00	1.208967e+00	1.205790e+00	1.221825e+00	8.767312e-01	7.542198e-01	8.997528e-01	9.980972e-01	1.532174e+00	1.536399e+00	1.510613e+00	1.490169e+00	1.512766e+00	1.245438e+00	1.261382e+00	1.269877e+00	1.086085e+00	1.242866e+00	1.133589e+00	1.149838e+00	1.139518e+00	1.087751e+00	1.103717e+00	1.325850e+00	1.478681e+00	1.390330e+00	1.412212e+00	1.339787e+00	1.332893e+00	1.181835e+00	1.234792e+00	1.068572e+00	1.063976e+00	1.409745e+00	1.287219e+00	1.285228e+00	1.308206e+00	1.336168e+00	1.322756e+00	1.334703e+00	1.320078