# vtk DataFile Version 3.0
vtk output
ASCII
DATASET UNSTRUCTURED_GRID
POINTS 198 double
0.000000e+00	0.000000e+00	0.0	3.106593e-03	3.917790e-03	0.0	6.341204e-03	7.968897e-03	0.0	1.074176e-02	1.106050e-02	0.0	1.532426e-02	1.422836e-02	0.0	2.054981e-02	1.668814e-02	0.0	2.597487e-02	1.920411e-02	0.0	3.178656e-02	2.134088e-02	0.0	3.781186e-02	2.351786e-02	0.0	4.412355e-02	2.553661e-02	0.0	5.065879e-02	2.758974e-02	0.0	5.744004e-02	2.961826e-02	0.0	6.444017e-02	3.172302e-02	0.0	7.166225e-02	3.390618e-02	0.0	7.909671e-02	3.620991e-02	0.0	8.676115e-02	3.858687e-02	0.0	9.469857e-02	4.090413e-02	0.0	1.029026e-01	4.317904e-02	0.0	1.114058e-01	4.529892e-02	0.0	1.201884e-01	4.731438e-02	0.0	1.292734e-01	4.912703e-02	0.0	1.386205e-01	5.089924e-02	0.0	1.482839e-01	5.231851e-02	0.0	1.581956e-01	5.377426e-02	0.0	1.684087e-01	5.480684e-02	0.0	1.788845e-01	5.573002e-02	0.0	1.896160e-01	5.648428e-02	0.0	2.006195e-01	5.671634e-02	0.0	2.118628e-01	5.695344e-02	0.0	2.233399e-01	5.677361e-02	0.0	2.350469e-01	5.642312e-02	0.0	2.469792e-01	5.606544e-02	0.0	2.591304e-01	5.569909e-02	0.0	2.714937e-01	5.532634e-02	0.0	2.840639e-01	5.532926e-02	0.0	2.968318e-01	5.555034e-02	0.0	3.097808e-01	5.588626e-02	0.0	3.228593e-01	5.710212e-02	0.0	3.361045e-01	5.833348e-02	0.0	3.494808e-01	5.980928e-02	0.0	3.629840e-01	6.146175e-02	0.0	3.766228e-01	6.309771e-02	0.0	3.904280e-01	6.430181e-02	0.0	4.043403e-01	6.551526e-02	0.0	4.183763e-01	6.599278e-02	0.0	4.325156e-01	6.589895e-02	0.0	4.467157e-01	6.570507e-02	0.0	4.609055e-01	6.431766e-02	0.0	4.751322e-01	6.292663e-02	0.0	4.893512e-01	6.127114e-02	0.0	5.035561e-01	5.942533e-02	0.0	5.177570e-01	5.761011e-02	0.0	5.319780e-01	5.616206e-02	0.0	5.461621e-01	5.471778e-02	0.0	5.603319e-01	5.382643e-02	0.0	5.744632e-01	5.334373e-02	0.0	5.885148e-01	5.291339e-02	0.0	6.024792e-01	5.306156e-02	0.0	6.163360e-01	5.320859e-02	0.0	6.300711e-01	5.343064e-02	0.0	6.436723e-01	5.370648e-02	0.0	6.571286e-01	5.395905e-02	0.0	6.704307e-01	5.389332e-02	0.0	6.835654e-01	5.382841e-02	0.0	6.965152e-01	5.348219e-02	0.0	7.092715e-01	5.289604e-02	0.0	7.218312e-01	5.231133e-02	0.0	7.341477e-01	5.117372e-02	0.0	7.462529e-01	5.005562e-02	0.0	7.580986e-01	4.861378e-02	0.0	7.696849e-01	4.690003e-02	0.0	7.810279e-01	4.513603e-02	0.0	7.920408e-01	4.285921e-02	0.0	8.028188e-01	4.063096e-02	0.0	8.132888e-01	3.814257e-02	0.0	8.235042e-01	3.564440e-02	0.0	8.334720e-01	3.317955e-02	0.0	8.431919e-01	3.075358e-02	0.0	8.526820e-01	2.844652e-02	0.0	8.619707e-01	2.638131e-02	0.0	8.710140e-01	2.437067e-02	0.0	8.798521e-01	2.260482e-02	0.0	8.884530e-01	2.092461e-02	0.0	8.968181e-01	1.933431e-02	0.0	9.049558e-01	1.786812e-02	0.0	9.128534e-01	1.644520e-02	0.0	9.205164e-01	1.508248e-02	0.0	9.279453e-01	1.376498e-02	0.0	9.351405e-01	1.247638e-02	0.0	9.421040e-01	1.120755e-02	0.0	9.488434e-01	9.978975e-03	0.0	9.553568e-01	8.759317e-03	0.0	9.616545e-01	7.580058e-03	0.0	9.677364e-01	6.417109e-03	0.0	9.736107e-01	5.289676e-03	0.0	9.792785e-01	4.179388e-03	0.0	9.847472e-01	3.099382e-03	0.0	9.900203e-01	2.042146e-03	0.0	9.951019e-01	1.004255e-03	0.0	1.000000e+00	0.000000e+00	0.0	9.950057e-01	2.349822e-04	0.0	9.898228e-01	4.322651e-04	0.0	9.844466e-01	5.780635e-04	0.0	9.788730e-01	6.793461e-04	0.0	9.730976e-01	7.563408e-04	0.0	9.671157e-01	7.755010e-04	0.0	9.609231e-01	7.722261e-04	0.0	9.545156e-01	7.033805e-04	0.0	9.478887e-01	6.191240e-04	0.0	9.410397e-01	4.388008e-04	0.0	9.339628e-01	2.524796e-04	0.0	9.266578e-01	-3.931961e-05	0.0	9.191185e-01	-3.649035e-04	0.0	9.113438e-01	-7.550240e-04	0.0	9.033329e-01	-1.255206e-03	0.0	8.950783e-01	-1.770610e-03	0.0	8.865902e-01	-2.472275e-03	0.0	8.778565e-01	-3.221898e-03	0.0	8.688840e-01	-4.095636e-03	0.0	8.596776e-01	-5.151857e-03	0.0	8.502221e-01	-6.243894e-03	0.0	8.405608e-01	-7.698861e-03	0.0	8.306511e-01	-9.191244e-03	0.0	8.205449e-01	-1.101891e-02	0.0	8.102119e-01	-1.299496e-02	0.0	7.996787e-01	-1.521519e-02	0.0	7.889534e-01	-1.770395e-02	0.0	7.780068e-01	-2.029711e-02	0.0	7.669070e-01	-2.325129e-02	0.0	7.555839e-01	-2.626489e-02	0.0	7.440418e-01	-2.933260e-02	0.0	7.322873e-01	-3.245475e-02	0.0	7.203143e-01	-3.557770e-02	0.0	7.080375e-01	-3.831957e-02	0.0	6.955688e-01	-4.110427e-02	0.0	6.828224e-01	-4.341377e-02	0.0	6.698161e-01	-4.529253e-02	0.0	6.566440e-01	-4.719526e-02	0.0	6.432099e-01	-4.810262e-02	0.0	6.296282e-01	-4.899434e-02	0.0	6.159061e-01	-4.975686e-02	0.0	6.020544e-01	-5.036066e-02	0.0	5.880952e-01	-5.096915e-02	0.0	5.740721e-01	-5.206950e-02	0.0	5.599704e-01	-5.320143e-02	0.0	5.458617e-01	-5.483264e-02	0.0	5.317740e-01	-5.707512e-02	0.0	5.176496e-01	-5.932345e-02	0.0	5.035957e-01	-6.209107e-02	0.0	4.895412e-01	-6.489779e-02	0.0	4.754690e-01	-6.756979e-02	0.0	4.613813e-01	-7.003765e-02	0.0	4.473302e-01	-7.249909e-02	0.0	4.331895e-01	-7.387549e-02	0.0	4.190953e-01	-7.509666e-02	0.0	4.050620e-01	-7.574854e-02	0.0	3.910920e-01	-7.548857e-02	0.0	3.772295e-01	-7.523060e-02	0.0	3.635341e-01	-7.411613e-02	0.0	3.499772e-01	-7.290453e-02	0.0	3.365823e-01	-7.154317e-02	0.0	3.233716e-01	-6.992875e-02	0.0	3.103274e-01	-6.833467e-02	0.0	2.974615e-01	-6.674831e-02	0.0	2.847820e-01	-6.518234e-02	0.0	2.722959e-01	-6.365413e-02	0.0	2.600092e-01	-6.218247e-02	0.0	2.479334e-01	-6.073608e-02	0.0	2.360721e-01	-5.934306e-02	0.0	2.244338e-01	-5.798561e-02	0.0	2.130245e-01	-5.665900e-02	0.0	2.018473e-01	-5.537784e-02	0.0	1.909087e-01	-5.412402e-02	0.0	1.802165e-01	-5.286022e-02	0.0	1.697718e-01	-5.160175e-02	0.0	1.595750e-01	-5.036437e-02	0.0	1.496511e-01	-4.896952e-02	0.0	1.399760e-01	-4.760965e-02	0.0	1.305766e-01	-4.611930e-02	0.0	1.214538e-01	-4.449161e-02	0.0	1.125781e-01	-4.290802e-02	0.0	1.040268e-01	-4.098408e-02	0.0	9.572364e-02	-3.908611e-02	0.0	8.769420e-02	-3.710988e-02	0.0	7.994919e-02	-3.500300e-02	0.0	7.243730e-02	-3.295954e-02	0.0	6.521595e-02	-3.076934e-02	0.0	5.822186e-02	-2.864015e-02	0.0	5.147561e-02	-2.649524e-02	0.0	4.495936e-02	-2.437862e-02	0.0	3.868881e-02	-2.223450e-02	0.0	3.264803e-02	-2.009670e-02	0.0	2.688763e-02	-1.782718e-02	0.0	2.136186e-02	-1.553868e-02	0.0	1.618160e-02	-1.298404e-02	0.0	1.130750e-02	-1.029111e-02	0.0	6.744604e-03	-7.448258e-03	0.0	2.774106e-03	-4.111167e-03	0.0	
CELLS 198	594
2	49	50	2	50	51	2	51	52	2	52	53	2	53	54	2	54	55	2	55	56	2	56	57	2	57	58	2	58	59	2	59	60	2	60	61	2	61	62	2	62	63	2	63	64	2	64	65	2	65	66	2	66	67	2	67	68	2	68	69	2	69	70	2	70	71	2	71	72	2	72	73	2	73	74	2	74	75	2	75	76	2	76	77	2	77	78	2	78	79	2	79	80	2	80	81	2	81	82	2	82	83	2	83	84	2	84	85	2	85	86	2	86	87	2	87	88	2	88	89	2	89	90	2	90	91	2	91	92	2	92	93	2	93	94	2	94	95	2	95	96	2	96	97	2	97	98	2	98	99	2	99	100	2	100	101	2	101	102	2	102	103	2	103	104	2	104	105	2	105	106	2	106	107	2	107	108	2	108	109	2	109	110	2	0	1	2	1	2	2	2	3	2	3	4	2	4	5	2	5	6	2	6	7	2	7	8	2	8	9	2	9	10	2	10	11	2	11	12	2	12	13	2	13	14	2	14	15	2	15	16	2	16	17	2	17	18	2	18	19	2	19	20	2	20	21	2	21	22	2	22	23	2	23	24	2	24	25	2	25	26	2	26	27	2	27	28	2	28	29	2	29	30	2	30	31	2	31	32	2	32	33	2	33	34	2	34	35	2	35	36	2	36	37	2	37	38	2	38	39	2	39	40	2	40	41	2	41	42	2	42	43	2	43	44	2	44	45	2	45	46	2	46	47	2	47	48	2	48	49	2	190	191	2	191	192	2	192	193	2	193	194	2	194	195	2	195	196	2	196	197	2	197	0	2	110	111	2	111	112	2	112	113	2	113	114	2	114	115	2	115	116	2	116	117	2	117	118	2	118	119	2	119	120	2	120	121	2	121	122	2	122	123	2	123	124	2	124	125	2	125	126	2	126	127	2	127	128	2	128	129	2	129	130	2	130	131	2	131	132	2	132	133	2	133	134	2	134	135	2	135	136	2	136	137	2	137	138	2	138	139	2	139	140	2	140	141	2	141	142	2	142	143	2	143	144	2	144	145	2	145	146	2	146	147	2	147	148	2	148	149	2	149	150	2	150	151	2	151	152	2	152	153	2	153	154	2	154	155	2	155	156	2	156	157	2	157	158	2	158	159	2	159	160	2	160	161	2	161	162	2	162	163	2	163	164	2	164	165	2	165	166	2	166	167	2	167	168	2	168	169	2	169	170	2	170	171	2	171	172	2	172	173	2	173	174	2	174	175	2	175	176	2	176	177	2	177	178	2	178	179	2	179	180	2	180	181	2	181	182	2	182	183	2	183	184	2	184	185	2	185	186	2	186	187	2	187	188	2	188	189	2	189	190	
CELL_TYPES 198
3	3	3	3	3	3	3	3	3	3	3	3	3	3	3	3	3	3	3	3	3	3	3	3	3	3	3	3	3	3	3	3	3	3	3	3	3	3	3	3	3	3	3	3	3	3	3	3	3	3	3	3	3	3	3	3	3	3	3	3	3	3	3	3	3	3	3	3	3	3	3	3	3	3	3	3	3	3	3	3	3	3	3	3	3	3	3	3	3	3	3	3	3	3	3	3	3	3	3	3	3	3	3	3	3	3	3	3	3	3	3	3	3	3	3	3	3	3	3	3	3	3	3	3	3	3	3	3	3	3	3	3	3	3	3	3	3	3	3	3	3	3	3	3	3	3	3	3	3	3	3	3	3	3	3	3	3	3	3	3	3	3	3	3	3	3	3	3	3	3	3	3	3	3	3	3	3	3	3	3	3	3	3	3	3	3	3	3	3	3	3	3	3	3	3	3	3	3	
POINT_DATA 198

SCALARS Density double 1
LOOKUP_TABLE default
1.553684e+00	1.217024e+00	1.184705e+00	1.083015e+00	1.040022e+00	1.007898e+00	1.021078e+00	1.035713e+00	1.064069e+00	1.084455e+00	1.105239e+00	1.120446e+00	1.129500e+00	1.127331e+00	1.111032e+00	1.076791e+00	1.036310e+00	9.972745e-01	9.607692e-01	9.267086e-01	9.008888e-01	8.684288e-01	8.428854e-01	8.144320e-01	7.806926e-01	7.637334e-01	7.246144e-01	6.961488e-01	6.774827e-01	6.517430e-01	6.467646e-01	6.544155e-01	6.630967e-01	6.910400e-01	7.292570e-01	7.516543e-01	8.169592e-01	8.915972e-01	9.404592e-01	1.009010e+00	1.039161e+00	1.013034e+00	9.735055e-01	9.192895e-01	8.437525e-01	8.084025e-01	7.504120e-01	6.958286e-01	6.772504e-01	6.793223e-01	8.158977e-01	1.110608e+00	1.220081e+00	1.232555e+00	1.235040e+00	1.220265e+00	1.215133e+00	1.201267e+00	1.172786e+00	1.153802e+00	1.129490e+00	1.096064e+00	1.069939e+00	1.049537e+00	1.021984e+00	1.009796e+00	9.859241e-01	9.755449e-01	9.869105e-01	9.956701e-01	1.022940e+00	1.044625e+00	1.080095e+00	1.122457e+00	1.150793e+00	1.185388e+00	1.210728e+00	1.231367e+00	1.251675e+00	1.261049e+00	1.268385e+00	1.275387e+00	1.275515e+00	1.279997e+00	1.281724e+00	1.282328e+00	1.285087e+00	1.287043e+00	1.289543e+00	1.293964e+00	1.298004e+00	1.302993e+00	1.308672e+00	1.314377e+00	1.321296e+00	1.329747e+00	1.334971e+00	1.351698e+00	1.380198e+00	1.330752e+00	1.433167e+00	1.415881e+00	1.416085e+00	1.416913e+00	1.417559e+00	1.418598e+00	1.418987e+00	1.420704e+00	1.420972e+00	1.421899e+00	1.422881e+00	1.422068e+00	1.425017e+00	1.423997e+00	1.426397e+00	1.427166e+00	1.425789e+00	1.429209e+00	1.426550e+00	1.429946e+00	1.428405e+00	1.426083e+00	1.424836e+00	1.418394e+00	1.414954e+00	1.403946e+00	1.396756e+00	1.382895e+00	1.361005e+00	1.344055e+00	1.320911e+00	1.288477e+00	1.265051e+00	1.235485e+00	1.200646e+00	1.197665e+00	1.171362e+00	1.177713e+00	1.213465e+00	1.228719e+00	1.253826e+00	1.287906e+00	1.303226e+00	1.315458e+00	1.331838e+00	1.319906e+00	1.310329e+00	1.294238e+00	1.256536e+00	1.223810e+00	1.193839e+00	1.081468e+00	9.370907e-01	8.821289e-01	8.740069e-01	9.315053e-01	9.814942e-01	1.035877e+00	1.097866e+00	1.128844e+00	1.165331e+00	1.198611e+00	1.220658e+00	1.238493e+00	1.252708e+00	1.263155e+00	1.271711e+00	1.279131e+00	1.284451e+00	1.289687e+00	1.293310e+00	1.294462e+00	1.296238e+00	1.297964e+00	1.294245e+00	1.295674e+00	1.297520e+00	1.295904e+00	1.305534e+00	1.303837e+00	1.312347e+00	1.332501e+00	1.341295e+00	1.360446e+00	1.373905e+00	1.389777e+00	1.409392e+00	1.424286e+00	1.439112e+00	1.453807e+00	1.466454e+00	1.483497e+00	1.501317e+00	1.520367e+00	1.554397e+00	1.584335e+00	1.600717e+00	1.690528e+00	
VECTORS Momentum double
1.259086e+01	1.999260e+02	0.0	1.584091e+02	1.964532e+02	0.0	2.074111e+02	1.953554e+02	0.0	2.420368e+02	1.691767e+02	0.0	2.645313e+02	1.516807e+02	0.0	2.778238e+02	1.295567e+02	0.0	2.861478e+02	1.183839e+02	0.0	2.912536e+02	1.059226e+02	0.0	2.938476e+02	9.987522e+01	0.0	2.954309e+02	9.357996e+01	0.0	2.955270e+02	9.039148e+01	0.0	2.958186e+02	8.866225e+01	0.0	2.954206e+02	8.905595e+01	0.0	2.964608e+02	9.074744e+01	0.0	2.992304e+02	9.294506e+01	0.0	3.030230e+02	9.140162e+01	0.0	3.062751e+02	8.704318e+01	0.0	3.094275e+02	8.123661e+01	0.0	3.115203e+02	7.441241e+01	0.0	3.114854e+02	6.664218e+01	0.0	3.121798e+02	6.079692e+01	0.0	3.105063e+02	5.225946e+01	0.0	3.091242e+02	4.545410e+01	0.0	3.072315e+02	3.807204e+01	0.0	3.023552e+02	2.840976e+01	0.0	3.012674e+02	2.404609e+01	0.0	2.942756e+02	1.387994e+01	0.0	2.888332e+02	5.826839e+00	0.0	2.856986e+02	5.955730e-01	0.0	2.793365e+02	-6.715885e+00	0.0	2.780898e+02	-8.820128e+00	0.0	2.806927e+02	-8.602109e+00	0.0	2.826865e+02	-8.533729e+00	0.0	2.893930e+02	-4.990597e+00	0.0	2.983670e+02	2.560190e+00	0.0	3.005267e+02	5.971308e+00	0.0	3.118922e+02	1.809478e+01	0.0	3.242296e+02	3.088733e+01	0.0	3.243194e+02	3.329230e+01	0.0	3.258040e+02	3.831066e+01	0.0	3.279594e+02	4.057921e+01	0.0	3.271055e+02	3.450586e+01	0.0	3.262517e+02	2.879738e+01	0.0	3.247046e+02	2.077247e+01	0.0	3.142936e+02	4.521604e+00	0.0	3.116288e+02	-2.906862e+00	0.0	3.020023e+02	-1.589453e+01	0.0	2.890316e+02	-2.844414e+01	0.0	2.848010e+02	-3.193157e+01	0.0	2.800685e+02	-3.429718e+01	0.0	2.841679e+02	-3.686163e+01	0.0	2.828898e+02	-3.226005e+01	0.0	2.787071e+02	-2.884403e+01	0.0	2.767364e+02	-2.315849e+01	0.0	2.797175e+02	-1.338153e+01	0.0	2.807908e+02	-9.188648e+00	0.0	2.829697e+02	-2.843555e+00	0.0	2.881387e+02	3.077539e+00	0.0	2.918223e+02	3.727482e+00	0.0	2.959534e+02	5.299646e+00	0.0	3.005939e+02	6.060349e+00	0.0	3.037972e+02	2.300618e+00	0.0	3.056968e+02	-1.558685e+00	0.0	3.084184e+02	-4.852372e+00	0.0	3.079544e+02	-1.135664e+01	0.0	3.100783e+02	-1.424737e+01	0.0	3.099305e+02	-2.154857e+01	0.0	3.086800e+02	-2.877968e+01	0.0	3.098831e+02	-3.308692e+01	0.0	3.075501e+02	-4.127246e+01	0.0	3.070363e+02	-4.654764e+01	0.0	3.032447e+02	-5.479772e+01	0.0	2.980864e+02	-6.166774e+01	0.0	2.944701e+02	-6.518678e+01	0.0	2.875842e+02	-6.923037e+01	0.0	2.821478e+02	-6.927101e+01	0.0	2.769088e+02	-6.860906e+01	0.0	2.710959e+02	-6.673480e+01	0.0	2.679385e+02	-6.222621e+01	0.0	2.655127e+02	-5.898314e+01	0.0	2.634956e+02	-5.569383e+01	0.0	2.635675e+02	-5.210049e+01	0.0	2.627505e+02	-5.070532e+01	0.0	2.622531e+02	-4.858449e+01	0.0	2.622425e+02	-4.724591e+01	0.0	2.617778e+02	-4.687185e+01	0.0	2.611734e+02	-4.636246e+01	0.0	2.603704e+02	-4.638874e+01	0.0	2.590683e+02	-4.680699e+01	0.0	2.576269e+02	-4.694139e+01	0.0	2.559356e+02	-4.727302e+01	0.0	2.540108e+02	-4.755304e+01	0.0	2.518416e+02	-4.765157e+01	0.0	2.493309e+02	-4.777868e+01	0.0	2.466892e+02	-4.780049e+01	0.0	2.436816e+02	-4.783626e+01	0.0	2.371874e+02	-4.758565e+01	0.0	2.359605e+02	-4.763489e+01	0.0	2.317832e+02	-4.674601e+01	0.0	1.872481e+02	-1.661932e+01	0.0	2.593698e+02	-1.236932e+01	0.0	2.608828e+02	-8.689150e+00	0.0	2.601195e+02	-5.846423e+00	0.0	2.601942e+02	-4.129004e+00	0.0	2.598523e+02	-2.134150e+00	0.0	2.595552e+02	-3.459765e-01	0.0	2.591759e+02	1.485580e+00	0.0	2.587332e+02	3.021562e+00	0.0	2.581186e+02	5.061478e+00	0.0	2.578339e+02	6.774787e+00	0.0	2.574662e+02	8.608573e+00	0.0	2.570832e+02	1.078237e+01	0.0	2.568713e+02	1.199319e+01	0.0	2.561068e+02	1.446069e+01	0.0	2.557385e+02	1.593955e+01	0.0	2.547803e+02	1.857222e+01	0.0	2.543896e+02	2.155337e+01	0.0	2.542694e+02	2.329904e+01	0.0	2.533923e+02	2.690133e+01	0.0	2.532187e+02	2.906544e+01	0.0	2.523216e+02	3.361712e+01	0.0	2.528923e+02	3.806324e+01	0.0	2.535847e+02	4.199609e+01	0.0	2.544270e+02	4.733088e+01	0.0	2.565276e+02	5.150495e+01	0.0	2.583783e+02	5.727714e+01	0.0	2.620650e+02	6.140132e+01	0.0	2.647876e+02	6.678699e+01	0.0	2.695507e+02	7.197347e+01	0.0	2.770272e+02	7.366434e+01	0.0	2.829217e+02	7.534979e+01	0.0	2.897424e+02	7.636078e+01	0.0	2.979189e+02	7.191212e+01	0.0	3.038511e+02	6.791239e+01	0.0	3.092063e+02	6.278758e+01	0.0	3.162044e+02	5.131129e+01	0.0	3.162819e+02	4.564416e+01	0.0	3.200128e+02	3.304736e+01	0.0	3.194026e+02	2.065367e+01	0.0	3.128717e+02	1.914699e+01	0.0	3.098519e+02	1.544044e+01	0.0	3.043547e+02	1.308073e+01	0.0	2.975184e+02	1.819930e+01	0.0	2.948160e+02	2.326031e+01	0.0	2.923418e+02	2.836697e+01	0.0	2.895929e+02	3.996515e+01	0.0	2.926048e+02	4.650782e+01	0.0	2.954199e+02	5.249002e+01	0.0	2.995494e+02	5.958533e+01	0.0	3.075865e+02	5.975511e+01	0.0	3.132507e+02	5.632103e+01	0.0	3.146671e+02	5.452829e+01	0.0	3.208734e+02	4.415373e+01	0.0	3.220014e+02	2.983704e+01	0.0	3.216278e+02	2.159218e+01	0.0	3.315243e+02	4.397675e+00	0.0	3.312641e+02	-6.236736e+00	0.0	3.330590e+02	-1.758917e+01	0.0	3.338721e+02	-2.923466e+01	0.0	3.296449e+02	-3.149580e+01	0.0	3.276092e+02	-3.685688e+01	0.0	3.237825e+02	-3.966125e+01	0.0	3.200588e+02	-3.926388e+01	0.0	3.174593e+02	-3.924310e+01	0.0	3.151669e+02	-3.880694e+01	0.0	3.132384e+02	-3.793262e+01	0.0	3.115661e+02	-3.731257e+01	0.0	3.101407e+02	-3.677256e+01	0.0	3.088325e+02	-3.613513e+01	0.0	3.078423e+02	-3.585541e+01	0.0	3.069577e+02	-3.541699e+01	0.0	3.064322e+02	-3.508556e+01	0.0	3.061557e+02	-3.564595e+01	0.0	3.058075e+02	-3.644389e+01	0.0	3.056777e+02	-3.687550e+01	0.0	3.058643e+02	-4.006613e+01	0.0	3.049705e+02	-4.282461e+01	0.0	3.039885e+02	-4.539989e+01	0.0	3.027543e+02	-5.109113e+01	0.0	3.002140e+02	-5.337471e+01	0.0	2.981280e+02	-6.000273e+01	0.0	2.928902e+02	-6.659870e+01	0.0	2.868972e+02	-6.817279e+01	0.0	2.819139e+02	-7.313608e+01	0.0	2.751511e+02	-7.478431e+01	0.0	2.687864e+02	-7.720935e+01	0.0	2.608813e+02	-7.931570e+01	0.0	2.531117e+02	-7.870155e+01	0.0	2.457576e+02	-7.896731e+01	0.0	2.379470e+02	-7.924106e+01	0.0	2.289754e+02	-7.954844e+01	0.0	2.182613e+02	-8.146217e+01	0.0	2.044010e+02	-8.255347e+01	0.0	1.855880e+02	-8.369668e+01	0.0	1.579043e+02	-8.266995e+01	0.0	1.199882e+02	-7.085572e+01	0.0	7.603866e+01	-5.206887e+01	0.0	-1.205420e+01	1.136382e+01	0.0	
SCALARS Energy double 1
LOOKUP_TABLE default
3.406224e+05	2.714002e+05	2.667053e+05	2.463659e+05	2.383118e+05	2.318926e+05	2.348481e+05	2.378532e+05	2.436862e+05	2.478266e+05	2.520273e+05	2.551401e+05	2.569853e+05	2.566546e+05	2.535628e+05	2.468039e+05	2.387103e+05	2.309301e+05	2.236059e+05	2.166078e+05	2.114073e+05	2.046374e+05	1.993344e+05	1.934293e+05	1.861776e+05	1.827089e+05	1.742510e+05	1.680938e+05	1.641309e+05	1.584506e+05	1.573564e+05	1.591323e+05	1.610313e+05	1.671776e+05	1.755874e+05	1.801762e+05	1.942337e+05	2.103488e+05	2.200943e+05	2.340509e+05	2.403657e+05	2.349437e+05	2.268562e+05	2.158089e+05	1.997047e+05	1.924734e+05	1.801457e+05	1.682149e+05	1.641934e+05	1.640606e+05	1.913128e+05	2.512746e+05	2.737800e+05	2.762309e+05	2.769024e+05	2.738675e+05	2.729291e+05	2.703819e+05	2.647061e+05	2.610622e+05	2.563747e+05	2.497227e+05	2.445052e+05	2.405538e+05	2.349027e+05	2.326159e+05	2.277936e+05	2.256316e+05	2.280806e+05	2.297371e+05	2.353032e+05	2.395241e+05	2.464853e+05	2.549936e+05	2.604233e+05	2.672360e+05	2.721620e+05	2.760779e+05	2.800745e+05	2.818520e+05	2.832318e+05	2.846663e+05	2.846290e+05	2.855202e+05	2.858692e+05	2.859653e+05	2.865063e+05	2.868725e+05	2.873290e+05	2.881806e+05	2.889409e+05	2.898896e+05	2.909708e+05	2.920413e+05	2.933635e+05	2.949948e+05	2.957650e+05	2.992540e+05	3.050972e+05	2.923812e+05	3.175184e+05	3.139232e+05	3.139222e+05	3.141000e+05	3.142179e+05	3.144221e+05	3.144851e+05	3.148270e+05	3.148535e+05	3.150374e+05	3.152296e+05	3.150414e+05	3.156591e+05	3.154099e+05	3.159048e+05	3.160282e+05	3.157279e+05	3.164557e+05	3.158648e+05	3.165891e+05	3.162450e+05	3.158128e+05	3.156150e+05	3.143391e+05	3.137594e+05	3.115873e+05	3.103111e+05	3.075990e+05	3.033185e+05	3.002061e+05	2.957243e+05	2.893740e+05	2.849465e+05	2.791367e+05	2.722176e+05	2.719666e+05	2.664762e+05	2.679542e+05	2.752130e+05	2.778842e+05	2.828714e+05	2.895899e+05	2.923576e+05	2.947686e+05	2.980765e+05	2.954852e+05	2.937288e+05	2.906064e+05	2.830981e+05	2.768568e+05	2.710180e+05	2.480000e+05	2.192111e+05	2.082344e+05	2.065219e+05	2.188654e+05	2.288251e+05	2.399815e+05	2.526998e+05	2.586791e+05	2.660380e+05	2.726136e+05	2.768814e+05	2.803826e+05	2.831622e+05	2.851880e+05	2.868450e+05	2.882865e+05	2.892998e+05	2.903218e+05	2.910143e+05	2.912164e+05	2.915729e+05	2.919161e+05	2.911343e+05	2.914724e+05	2.918228e+05	2.914445e+05	2.934343e+05	2.929380e+05	2.946634e+05	2.986394e+05	3.001356e+05	3.039342e+05	3.063994e+05	3.094267e+05	3.131776e+05	3.159184e+05	3.187011e+05	3.214539e+05	3.237399e+05	3.269385e+05	3.302003e+05	3.336022e+05	3.400069e+05	3.453305e+05	3.478903e+05	3.666321e+05	
SCALARS Pressure double 1
LOOKUP_TABLE default
1.310833e+05	9.809399e+04	9.297691e+04	8.244269e+04	7.744360e+04	7.411011e+04	7.515610e+04	7.659402e+04	7.937011e+04	8.141915e+04	8.352836e+04	8.503252e+04	8.593635e+04	8.560843e+04	8.375191e+04	8.011492e+04	7.591835e+04	7.184715e+04	6.808820e+04	6.474534e+04	6.210677e+04	5.902172e+04	5.656956e+04	5.383613e+04	5.084437e+04	4.916415e+04	4.574538e+04	4.326030e+04	4.155607e+04	3.942171e+04	3.900440e+04	3.955131e+04	4.028800e+04	4.262547e+04	4.581848e+04	4.802965e+04	5.379898e+04	6.034429e+04	6.543356e+04	7.228935e+04	7.512853e+04	7.261813e+04	6.870470e+04	6.329174e+04	5.646250e+04	5.296147e+04	4.768288e+04	4.304197e+04	4.142304e+04	4.218482e+04	5.639757e+04	8.591110e+04	9.664244e+04	9.797863e+04	9.806161e+04	9.661080e+04	9.599119e+04	9.432845e+04	9.135736e+04	8.923744e+04	8.654383e+04	8.304736e+04	8.033323e+04	7.809060e+04	7.537665e+04	7.396297e+04	7.153759e+04	7.054844e+04	7.155013e+04	7.255302e+04	7.526623e+04	7.762894e+04	8.143665e+04	8.578980e+04	8.896286e+04	9.265334e+04	9.542069e+04	9.777101e+04	9.993989e+04	1.010084e+05	1.018559e+05	1.025472e+05	1.026234e+05	1.030929e+05	1.032683e+05	1.033555e+05	1.036521e+05	1.038799e+05	1.041825e+05	1.046730e+05	1.051391e+05	1.057052e+05	1.063484e+05	1.070098e+05	1.077881e+05	1.087226e+05	1.095384e+05	1.111277e+05	1.139373e+05	1.116415e+05	1.175980e+05	1.159448e+05	1.160078e+05	1.160815e+05	1.161598e+05	1.162709e+05	1.163261e+05	1.165056e+05	1.165604e+05	1.166579e+05	1.167639e+05	1.167051e+05	1.169828e+05	1.169224e+05	1.171560e+05	1.172662e+05	1.171483e+05	1.174590e+05	1.172427e+05	1.175494e+05	1.174254e+05	1.171527e+05	1.169721e+05	1.162921e+05	1.158272e+05	1.146573e+05	1.137507e+05	1.122546e+05	1.098891e+05	1.078552e+05	1.053104e+05	1.018135e+05	9.912909e+04	9.596246e+04	9.230417e+04	9.165027e+04	8.915476e+04	8.960519e+04	9.320056e+04	9.516055e+04	9.779609e+04	1.014245e+05	1.033079e+05	1.046106e+05	1.062758e+05	1.052445e+05	1.040933e+05	1.023304e+05	9.839204e+04	9.469775e+04	9.143707e+04	8.033881e+04	6.529404e+04	5.958405e+04	5.883075e+04	6.394400e+04	6.916114e+04	7.451560e+04	8.061745e+04	8.404332e+04	8.776193e+04	9.129021e+04	9.371597e+04	9.562964e+04	9.716597e+04	9.831192e+04	9.925247e+04	1.000637e+05	1.006655e+05	1.012332e+05	1.016409e+05	1.017883e+05	1.019710e+05	1.021518e+05	1.018045e+05	1.019003e+05	1.021103e+05	1.019980e+05	1.029320e+05	1.029131e+05	1.037714e+05	1.059143e+05	1.070880e+05	1.091036e+05	1.107248e+05	1.125160e+05	1.147204e+05	1.165014e+05	1.182202e+05	1.199287e+05	1.214824e+05	1.234584e+05	1.256065e+05	1.279885e+05	1.319153e+05	1.356810e+05	1.380950e+05	1.466204e+05	
SCALARS Temperature double 1
LOOKUP_TABLE default
2.939105e+02	2.807849e+02	2.733978e+02	2.651844e+02	2.594022e+02	2.561481e+02	2.564103e+02	2.576238e+02	2.598470e+02	2.615443e+02	2.632742e+02	2.643776e+02	2.650458e+02	2.645425e+02	2.626022e+02	2.591865e+02	2.552040e+02	2.509719e+02	2.468784e+02	2.433860e+02	2.401586e+02	2.367598e+02	2.338001e+02	2.302764e+02	2.268784e+02	2.242524e+02	2.199230e+02	2.164800e+02	2.136813e+02	2.107121e+02	2.100863e+02	2.105415e+02	2.116553e+02	2.148802e+02	2.188721e+02	2.225982e+02	2.294056e+02	2.357750e+02	2.423767e+02	2.495796e+02	2.518561e+02	2.497190e+02	2.458546e+02	2.398419e+02	2.331178e+02	2.282247e+02	2.213569e+02	2.154865e+02	2.130703e+02	2.163270e+02	2.407992e+02	2.694753e+02	2.759367e+02	2.769207e+02	2.765976e+02	2.758048e+02	2.751932e+02	2.735480e+02	2.713657e+02	2.694302e+02	2.669218e+02	2.639492e+02	2.615572e+02	2.591978e+02	2.569348e+02	2.551591e+02	2.527675e+02	2.519246e+02	2.525591e+02	2.538460e+02	2.563187e+02	2.588771e+02	2.626566e+02	2.662540e+02	2.693034e+02	2.722896e+02	2.745532e+02	2.766004e+02	2.781491e+02	2.790331e+02	2.797469e+02	2.800995e+02	2.802793e+02	2.805757e+02	2.806745e+02	2.807791e+02	2.809805e+02	2.811700e+02	2.814421e+02	2.818012e+02	2.821752e+02	2.826081e+02	2.830937e+02	2.836181e+02	2.841849e+02	2.848271e+02	2.858414e+02	2.864002e+02	2.875777e+02	2.922528e+02	2.858469e+02	2.852694e+02	2.853832e+02	2.853974e+02	2.854599e+02	2.855236e+02	2.855809e+02	2.856758e+02	2.857562e+02	2.858088e+02	2.858711e+02	2.858905e+02	2.859778e+02	2.860348e+02	2.861242e+02	2.862389e+02	2.862274e+02	2.862996e+02	2.863050e+02	2.863722e+02	2.863791e+02	2.861790e+02	2.859879e+02	2.856167e+02	2.851667e+02	2.844997e+02	2.837029e+02	2.827776e+02	2.812712e+02	2.795468e+02	2.777335e+02	2.752703e+02	2.729753e+02	2.705790e+02	2.678161e+02	2.665807e+02	2.651453e+02	2.650476e+02	2.675604e+02	2.697956e+02	2.717156e+02	2.743400e+02	2.761495e+02	2.770314e+02	2.779799e+02	2.777709e+02	2.767405e+02	2.754361e+02	2.727819e+02	2.695603e+02	2.668130e+02	2.587868e+02	2.427293e+02	2.353035e+02	2.344876e+02	2.391359e+02	2.454736e+02	2.505933e+02	2.558056e+02	2.593579e+02	2.623537e+02	2.653239e+02	2.674546e+02	2.689859e+02	2.702058e+02	2.711314e+02	2.718837e+02	2.725159e+02	2.730195e+02	2.734445e+02	2.737764e+02	2.739296e+02	2.740454e+02	2.741662e+02	2.740191e+02	2.739746e+02	2.741486e+02	2.741885e+02	2.746583e+02	2.749652e+02	2.754605e+02	2.768964e+02	2.781294e+02	2.793754e+02	2.807490e+02	2.820329e+02	2.835563e+02	2.849473e+02	2.861721e+02	2.873736e+02	2.885860e+02	2.899106e+02	2.914541e+02	2.932600e+02	2.956402e+02	2.983338e+02	3.005340e+02	3.021358e+02	
SCALARS Mach double 1
LOOKUP_TABLE default
3.751542e-01	6.172934e-01	7.255646e-01	8.352322e-01	9.080835e-01	9.479508e-01	9.447634e-01	9.299585e-01	9.025768e-01	8.814249e-01	8.596233e-01	8.455769e-01	8.370138e-01	8.434670e-01	8.681234e-01	9.107476e-01	9.593915e-01	1.010082e+00	1.058343e+00	1.099048e+00	1.136369e+00	1.175435e+00	1.209312e+00	1.249529e+00	1.288252e+00	1.318172e+00	1.367558e+00	1.406940e+00	1.439060e+00	1.473273e+00	1.480504e+00	1.475244e+00	1.462388e+00	1.425287e+00	1.379565e+00	1.337029e+00	1.259456e+00	1.186719e+00	1.110746e+00	1.026572e+00	9.995660e-01	1.024926e+00	1.070315e+00	1.140018e+00	1.217107e+00	1.272913e+00	1.351188e+00	1.418329e+00	1.446088e+00	1.408694e+00	1.128980e+00	7.790297e-01	6.896346e-01	6.753809e-01	6.800832e-01	6.915304e-01	7.002775e-01	7.234712e-01	7.535441e-01	7.796322e-01	8.127278e-01	8.510429e-01	8.812630e-01	9.106085e-01	9.383762e-01	9.599340e-01	9.886864e-01	9.987496e-01	9.911774e-01	9.757581e-01	9.458773e-01	9.145652e-01	8.674362e-01	8.214158e-01	7.813235e-01	7.409033e-01	7.093580e-01	6.800417e-01	6.572990e-01	6.440755e-01	6.332591e-01	6.278679e-01	6.251058e-01	6.205339e-01	6.190053e-01	6.173834e-01	6.142522e-01	6.112950e-01	6.070299e-01	6.013685e-01	5.954308e-01	5.885036e-01	5.806584e-01	5.720993e-01	5.627357e-01	5.519823e-01	5.346597e-01	5.249263e-01	5.039318e-01	4.121886e-01	5.345646e-01	5.444815e-01	5.425383e-01	5.422946e-01	5.412259e-01	5.401334e-01	5.391505e-01	5.375175e-01	5.361304e-01	5.352226e-01	5.341462e-01	5.338095e-01	5.322961e-01	5.313061e-01	5.297507e-01	5.277509e-01	5.279502e-01	5.266896e-01	5.265951e-01	5.254169e-01	5.252963e-01	5.287951e-01	5.321216e-01	5.385341e-01	5.462298e-01	5.574848e-01	5.707059e-01	5.857741e-01	6.097109e-01	6.363044e-01	6.634535e-01	6.991796e-01	7.314364e-01	7.642098e-01	8.010143e-01	8.171717e-01	8.357349e-01	8.369902e-01	8.043735e-01	7.747460e-01	7.487715e-01	7.123660e-01	6.865692e-01	6.737649e-01	6.598101e-01	6.629023e-01	6.780061e-01	6.968117e-01	7.341139e-01	7.778948e-01	8.141465e-01	9.156775e-01	1.106663e+00	1.192118e+00	1.201452e+00	1.148146e+00	1.074762e+00	1.014575e+00	9.521066e-01	9.086300e-01	8.712555e-01	8.334359e-01	8.057599e-01	7.855508e-01	7.692403e-01	7.567299e-01	7.464719e-01	7.377860e-01	7.308235e-01	7.249141e-01	7.202787e-01	7.181332e-01	7.165088e-01	7.148124e-01	7.168782e-01	7.175027e-01	7.150595e-01	7.144983e-01	7.078715e-01	7.035217e-01	6.964631e-01	6.757349e-01	6.575925e-01	6.389045e-01	6.178495e-01	5.976960e-01	5.731131e-01	5.499512e-01	5.289155e-01	5.076206e-01	4.853751e-01	4.600749e-01	4.290311e-01	3.900571e-01	3.326619e-01	2.540106e-01	1.656615e-01	2.812233e-02	
SCALARS Pressure_Coefficient double 1
LOOKUP_TABLE default