# vtk DataFile Version 3.0
vtk output
ASCII
DATASET UNSTRUCTURED_GRID
POINTS 20246 double
5.000000e+01	0.000000e+00	0.0	4.958950e+01	6.393858e+00	0.0	4.836474e+01	1.268273e+01	0.0	4.634584e+01	1.876335e+01	0.0	4.356594e+01	2.453588e+01	0.0	4.007068e+01	2.990553e+01	0.0	3.591747e+01	3.478413e+01	0.0	3.117449e+01	3.909157e+01	0.0	2.591963e+01	4.275714e+01	0.0	2.023917e+01	4.572063e+01	0.0	1.422638e+01	4.793339e+01	0.0	7.979995e+00	4.935909e+01	0.0	1.602579e+00	4.997431e+01	0.0	-4.801151e+00	4.976896e+01	0.0	-1.112605e+01	4.874640e+01	0.0	-1.726825e+01	4.692342e+01	0.0	-2.312691e+01	4.432997e+01	0.0	-2.860583e+01	4.100861e+01	0.0	-3.361504e+01	3.701390e+01	0.0	-3.807230e+01	3.241142e+01	0.0	-4.190441e+01	2.727675e+01	0.0	-4.504844e+01	2.169419e+01	0.0	-4.745279e+01	1.575541e+01	0.0	-4.907796e+01	9.557931e+00	0.0	-4.989727e+01	3.203511e+00	0.0	-4.989727e+01	-3.203511e+00	0.0	-4.907796e+01	-9.557931e+00	0.0	-4.745279e+01	-1.575541e+01	0.0	-4.504844e+01	-2.169419e+01	0.0	-4.190441e+01	-2.727675e+01	0.0	-3.807230e+01	-3.241142e+01	0.0	-3.361504e+01	-3.701390e+01	0.0	-2.860583e+01	-4.100861e+01	0.0	-2.312691e+01	-4.432997e+01	0.0	-1.726825e+01	-4.692342e+01	0.0	-1.112605e+01	-4.874640e+01	0.0	-4.801151e+00	-4.976896e+01	0.0	1.602579e+00	-4.997431e+01	0.0	7.979995e+00	-4.935909e+01	0.0	1.422638e+01	-4.793339e+01	0.0	2.023917e+01	-4.572063e+01	0.0	2.591963e+01	-4.275714e+01	0.0	3.117449e+01	-3.909157e+01	0.0	3.591747e+01	-3.478413e+01	0.0	4.007068e+01	-2.990553e+01	0.0	4.356594e+01	-2.453588e+01	0.0	4.634584e+01	-1.876335e+01	0.0	4.836474e+01	-1.268273e+01	0.0	4.958950e+01	-6.393858e+00	0.0	0.000000e+00	0.000000e+00	0.0	3.098279e-03	3.924368e-03	0.0	6.162432e-03	7.805512e-03	0.0	1.020093e-02	1.054669e-02	0.0	1.423992e-02	1.321022e-02	0.0	1.854451e-02	1.527535e-02	0.0	2.288754e-02	1.716350e-02	0.0	2.722084e-02	1.894270e-02	0.0	3.157036e-02	2.055108e-02	0.0	3.587513e-02	2.214291e-02	0.0	4.013751e-02	2.371455e-02	0.0	4.435743e-02	2.526890e-02	0.0	4.853518e-02	2.680772e-02	0.0	5.264761e-02	2.839480e-02	0.0	5.671767e-02	2.997180e-02	0.0	6.074824e-02	3.153350e-02	0.0	6.469141e-02	3.320000e-02	0.0	6.859347e-02	3.485945e-02	0.0	7.245876e-02	3.650325e-02	0.0	7.626146e-02	3.819231e-02	0.0	8.002116e-02	3.988372e-02	0.0	8.374644e-02	4.155965e-02	0.0	8.746771e-02	4.314965e-02	0.0	9.120270e-02	4.461331e-02	0.0	9.490449e-02	4.606397e-02	0.0	9.857370e-02	4.750186e-02	0.0	1.022863e-01	4.870079e-02	0.0	1.060198e-01	4.973002e-02	0.0	1.097214e-01	5.075046e-02	0.0	1.133917e-01	5.176226e-02	0.0	1.170401e-01	5.272407e-02	0.0	1.207430e-01	5.327714e-02	0.0	1.244154e-01	5.382566e-02	0.0	1.280580e-01	5.436973e-02	0.0	1.316712e-01	5.490941e-02	0.0	1.352556e-01	5.544478e-02	0.0	1.388280e-01	5.583032e-02	0.0	1.423856e-01	5.609420e-02	0.0	1.459157e-01	5.635604e-02	0.0	1.494188e-01	5.661588e-02	0.0	1.528952e-01	5.687374e-02	0.0	1.563456e-01	5.712966e-02	0.0	1.597703e-01	5.738368e-02	0.0	1.631741e-01	5.756491e-02	0.0	1.665541e-01	5.772715e-02	0.0	1.699098e-01	5.788822e-02	0.0	1.732415e-01	5.804814e-02	0.0	1.765497e-01	5.820693e-02	0.0	1.798347e-01	5.836461e-02	0.0	1.830969e-01	5.852119e-02	0.0	1.863368e-01	5.867671e-02	0.0	1.895538e-01	5.884948e-02	0.0	1.927491e-01	5.902384e-02	0.0	1.959231e-01	5.919705e-02	0.0	1.990762e-01	5.936911e-02	0.0	2.022089e-01	5.954006e-02	0.0	2.053214e-01	5.970991e-02	0.0	2.084140e-01	5.987867e-02	0.0	2.114872e-01	6.004637e-02	0.0	2.145412e-01	6.021303e-02	0.0	2.175739e-01	6.041722e-02	0.0	2.205877e-01	6.062829e-02	0.0	2.235832e-01	6.083809e-02	0.0	2.265609e-01	6.104663e-02	0.0	2.295210e-01	6.125394e-02	0.0	2.324638e-01	6.146004e-02	0.0	2.353896e-01	6.166495e-02	0.0	2.382987e-01	6.186869e-02	0.0	2.411914e-01	6.207128e-02	0.0	2.440679e-01	6.227274e-02	0.0	2.469287e-01	6.246965e-02	0.0	2.497741e-01	6.266412e-02	0.0	2.526041e-01	6.285754e-02	0.0	2.554189e-01	6.304992e-02	0.0	2.582190e-01	6.324129e-02	0.0	2.610044e-01	6.343167e-02	0.0	2.637755e-01	6.362106e-02	0.0	2.665325e-01	6.380949e-02	0.0	2.692756e-01	6.399697e-02	0.0	2.720050e-01	6.418352e-02	0.0	2.747211e-01	6.436915e-02	0.0	2.774255e-01	6.452756e-02	0.0	2.801184e-01	6.466107e-02	0.0	2.827986e-01	6.479394e-02	0.0	2.854662e-01	6.492620e-02	0.0	2.881215e-01	6.505784e-02	0.0	2.907647e-01	6.518888e-02	0.0	2.933961e-01	6.531933e-02	0.0	2.960157e-01	6.544921e-02	0.0	2.986238e-01	6.557851e-02	0.0	3.012206e-01	6.570725e-02	0.0	3.038064e-01	6.583544e-02	0.0	3.063812e-01	6.596310e-02	0.0	3.089460e-01	6.607072e-02	0.0	3.115023e-01	6.611967e-02	0.0	3.140482e-01	6.616841e-02	0.0	3.165840e-01	6.621696e-02	0.0	3.191098e-01	6.626532e-02	0.0	3.216258e-01	6.631349e-02	0.0	3.241321e-01	6.636147e-02	0.0	3.266290e-01	6.640928e-02	0.0	3.291166e-01	6.645691e-02	0.0	3.315952e-01	6.650436e-02	0.0	3.340647e-01	6.655164e-02	0.0	3.365255e-01	6.659876e-02	0.0	3.389777e-01	6.664570e-02	0.0	3.414214e-01	6.669249e-02	0.0	3.438573e-01	6.668743e-02	0.0	3.462850e-01	6.667870e-02	0.0	3.487047e-01	6.667000e-02	0.0	3.511167e-01	6.666133e-02	0.0	3.535209e-01	6.665269e-02	0.0	3.559177e-01	6.664408e-02	0.0	3.583070e-01	6.663549e-02	0.0	3.606891e-01	6.662693e-02	0.0	3.630642e-01	6.661839e-02	0.0	3.654323e-01	6.660988e-02	0.0	3.677936e-01	6.660139e-02	0.0	3.701483e-01	6.659293e-02	0.0	3.724965e-01	6.658449e-02	0.0	3.748383e-01	6.657607e-02	0.0	3.771737e-01	6.655235e-02	0.0	3.795029e-01	6.652004e-02	0.0	3.818262e-01	6.648782e-02	0.0	3.841437e-01	6.645568e-02	0.0	3.864554e-01	6.642361e-02	0.0	3.887616e-01	6.639163e-02	0.0	3.910624e-01	6.635972e-02	0.0	3.933578e-01	6.632788e-02	0.0	3.956481e-01	6.629611e-02	0.0	3.979333e-01	6.626442e-02	0.0	4.002135e-01	6.623279e-02	0.0	4.024890e-01	6.620123e-02	0.0	4.047598e-01	6.616973e-02	0.0	4.070260e-01	6.613830e-02	0.0	4.092878e-01	6.610693e-02	0.0	4.115453e-01	6.607610e-02	0.0	4.137986e-01	6.604580e-02	0.0	4.160479e-01	6.601556e-02	0.0	4.182931e-01	6.598538e-02	0.0	4.205345e-01	6.595524e-02	0.0	4.227722e-01	6.592515e-02	0.0	4.250063e-01	6.589512e-02	0.0	4.272369e-01	6.586513e-02	0.0	4.294641e-01	6.583518e-02	0.0	4.316881e-01	6.580528e-02	0.0	4.339089e-01	6.577542e-02	0.0	4.361266e-01	6.574561e-02	0.0	4.383414e-01	6.571583e-02	0.0	4.405534e-01	6.568609e-02	0.0	4.427627e-01	6.565638e-02	0.0	4.449695e-01	6.562672e-02	0.0	4.471734e-01	6.558333e-02	0.0	4.493749e-01	6.553420e-02	0.0	4.515742e-01	6.548513e-02	0.0	4.537712e-01	6.543610e-02	0.0	4.559662e-01	6.538712e-02	0.0	4.581593e-01	6.533818e-02	0.0	4.603505e-01	6.528929e-02	0.0	4.625401e-01	6.524043e-02	0.0	4.647279e-01	6.519161e-02	0.0	4.669143e-01	6.514282e-02	0.0	4.690993e-01	6.509407e-02	0.0	4.712829e-01	6.504534e-02	0.0	4.734654e-01	6.499664e-02	0.0	4.756467e-01	6.494797e-02	0.0	4.778271e-01	6.489931e-02	0.0	4.800066e-01	6.485068e-02	0.0	4.821837e-01	6.476250e-02	0.0	4.843584e-01	6.463404e-02	0.0	4.865326e-01	6.450562e-02	0.0	4.887064e-01	6.437723e-02	0.0	4.908797e-01	6.424886e-02	0.0	4.930529e-01	6.412050e-02	0.0	4.952258e-01	6.399216e-02	0.0	4.973987e-01	6.386381e-02	0.0	4.995717e-01	6.373547e-02	0.0	5.017448e-01	6.360711e-02	0.0	5.039182e-01	6.347874e-02	0.0	5.060919e-01	6.335035e-02	0.0	5.082661e-01	6.322193e-02	0.0	5.104409e-01	6.309347e-02	0.0	5.126163e-01	6.296498e-02	0.0	5.147926e-01	6.283644e-02	0.0	5.169680e-01	6.268951e-02	0.0	5.191331e-01	6.241936e-02	0.0	5.212993e-01	6.214908e-02	0.0	5.234667e-01	6.187865e-02	0.0	5.256354e-01	6.160806e-02	0.0	5.278054e-01	6.133729e-02	0.0	5.299770e-01	6.106634e-02	0.0	5.321502e-01	6.079518e-02	0.0	5.343252e-01	6.052381e-02	0.0	5.365019e-01	6.025221e-02	0.0	5.386806e-01	5.998037e-02	0.0	5.408613e-01	5.970828e-02	0.0	5.430441e-01	5.943592e-02	0.0	5.452292e-01	5.916328e-02	0.0	5.474167e-01	5.889035e-02	0.0	5.496066e-01	5.861710e-02	0.0	5.517991e-01	5.834354e-02	0.0	5.539732e-01	5.793904e-02	0.0	5.561455e-01	5.750643e-02	0.0	5.583208e-01	5.707324e-02	0.0	5.604990e-01	5.663946e-02	0.0	5.626803e-01	5.620506e-02	0.0	5.648648e-01	5.577003e-02	0.0	5.670527e-01	5.533434e-02	0.0	5.692439e-01	5.489796e-02	0.0	5.714387e-01	5.446088e-02	0.0	5.736372e-01	5.402307e-02	0.0	5.758394e-01	5.358451e-02	0.0	5.780455e-01	5.314517e-02	0.0	5.802556e-01	5.270504e-02	0.0	5.824698e-01	5.226409e-02	0.0	5.846883e-01	5.182230e-02	0.0	5.869111e-01	5.137964e-02	0.0	5.891313e-01	5.090257e-02	0.0	5.913542e-01	5.041493e-02	0.0	5.935817e-01	4.992625e-02	0.0	5.958140e-01	4.943652e-02	0.0	5.980513e-01	4.894570e-02	0.0	6.002936e-01	4.845378e-02	0.0	6.025412e-01	4.796072e-02	0.0	6.047940e-01	4.746649e-02	0.0	6.070523e-01	4.697107e-02	0.0	6.093161e-01	4.647442e-02	0.0	6.115857e-01	4.597653e-02	0.0	6.138610e-01	4.547736e-02	0.0	6.161423e-01	4.497689e-02	0.0	6.184297e-01	4.447507e-02	0.0	6.207234e-01	4.397189e-02	0.0	6.230310e-01	4.350625e-02	0.0	6.253583e-01	4.310665e-02	0.0	6.276922e-01	4.270590e-02	0.0	6.300330e-01	4.230398e-02	0.0	6.323808e-01	4.190086e-02	0.0	6.347357e-01	4.149652e-02	0.0	6.370979e-01	4.109093e-02	0.0	6.394675e-01	4.068407e-02	0.0	6.418447e-01	4.027591e-02	0.0	6.442295e-01	3.986643e-02	0.0	6.466223e-01	3.945559e-02	0.0	6.490230e-01	3.904338e-02	0.0	6.514319e-01	3.862976e-02	0.0	6.538492e-01	3.821472e-02	0.0	6.562749e-01	3.779821e-02	0.0	6.587400e-01	3.764653e-02	0.0	6.612146e-01	3.749964e-02	0.0	6.636983e-01	3.735220e-02	0.0	6.661913e-01	3.720422e-02	0.0	6.686937e-01	3.705567e-02	0.0	6.712057e-01	3.690656e-02	0.0	6.737276e-01	3.675686e-02	0.0	6.762593e-01	3.660657e-02	0.0	6.788013e-01	3.645568e-02	0.0	6.813535e-01	3.630418e-02	0.0	6.839163e-01	3.615205e-02	0.0	6.864897e-01	3.599928e-02	0.0	6.890741e-01	3.584587e-02	0.0	6.916717e-01	3.589091e-02	0.0	6.942811e-01	3.599099e-02	0.0	6.969020e-01	3.609150e-02	0.0	6.995346e-01	3.619247e-02	0.0	7.021791e-01	3.629389e-02	0.0	7.048357e-01	3.639578e-02	0.0	7.075046e-01	3.649814e-02	0.0	7.101861e-01	3.660098e-02	0.0	7.128803e-01	3.670431e-02	0.0	7.155876e-01	3.680813e-02	0.0	7.183080e-01	3.691247e-02	0.0	7.210418e-01	3.701731e-02	0.0	7.237859e-01	3.718581e-02	0.0	7.265429e-01	3.737387e-02	0.0	7.293140e-01	3.756289e-02	0.0	7.320995e-01	3.775289e-02	0.0	7.348995e-01	3.794389e-02	0.0	7.377144e-01	3.813590e-02	0.0	7.405444e-01	3.832894e-02	0.0	7.433898e-01	3.852302e
[...]
POINT_DATA 20246

SCALARS Density double 1
LOOKUP_TABLE default
1.290768e+00	1.290949e+00	1.291818e+00	1.292045e+00	1.291872e+00	1.291765e+00	1.291665e+00	1.291523e+00	1.291385e+00	1.291236e+00	1.291113e+00	1.291058e+00	1.291080e+00	1.291213e+00	1.291423e+00	1.291628e+00	1.291817e+00	1.291968e+00	1.292087e+00	1.292167e+00	1.292227e+00	1.292273e+00	1.292307e+00	1.292338e+00	1.292360e+00	1.292387e+00	1.292412e+00	1.292443e+00	1.292481e+00	1.292529e+00	1.292593e+00	1.292679e+00	1.292780e+00	1.292918e+00	1.293077e+00	1.293245e+00	1.293432e+00	1.293571e+00	1.293596e+00	1.293546e+00	1.293427e+00	1.293276e+00	1.293105e+00	1.292937e+00	1.292785e+00	1.292642e+00	1.292575e+00	1.292489e+00	1.291818e+00	1.531817e+00	1.216622e+00	1.210516e+00	1.107453e+00	1.116281e+00	1.111750e+00	1.155590e+00	1.178310e+00	1.198463e+00	1.221797e+00	1.230109e+00	1.236568e+00	1.244821e+00	1.247818e+00	1.243498e+00	1.248256e+00	1.242416e+00	1.222801e+00	1.213298e+00	1.197118e+00	1.164775e+00	1.123491e+00	1.081452e+00	1.063358e+00	1.047959e+00	9.703843e-01	8.817632e-01	8.618199e-01	8.778188e-01	8.704330e-01	7.847675e-01	7.124171e-01	7.081556e-01	7.165900e-01	7.280792e-01	7.065658e-01	6.642710e-01	6.391521e-01	6.411998e-01	6.494525e-01	6.561975e-01	6.600463e-01	6.514516e-01	6.363874e-01	6.345270e-01	6.390521e-01	6.442207e-01	6.475454e-01	6.505464e-01	6.538879e-01	6.606934e-01	6.688064e-01	6.729586e-01	6.757352e-01	6.783665e-01	6.809931e-01	6.836376e-01	6.858589e-01	6.882442e-01	6.999490e-01	7.142515e-01	7.193442e-01	7.209398e-01	7.225642e-01	7.249187e-01	7.275371e-01	7.302064e-01	7.327485e-01	7.353375e-01	7.368403e-01	7.382127e-01	7.402050e-01	7.424710e-01	7.447464e-01	7.468371e-01	7.491285e-01	7.514391e-01	7.539545e-01	7.565532e-01	7.591662e-01	7.536828e-01	7.417808e-01	7.357072e-01	7.380889e-01	7.405727e-01	7.421458e-01	7.437618e-01	7.453804e-01	7.471918e-01	7.489741e-01	7.513834e-01	7.536277e-01	7.483313e-01	7.264523e-01	7.109270e-01	7.117153e-01	7.140793e-01	7.160642e-01	7.168917e-01	7.180752e-01	7.194822e-01	7.206215e-01	7.217732e-01	7.230429e-01	7.252320e-01	7.263865e-01	7.133308e-01	6.970983e-01	6.961409e-01	6.988159e-01	7.010927e-01	7.022256e-01	7.030443e-01	7.042998e-01	7.058968e-01	7.072877e-01	7.083941e-01	7.093577e-01	7.104489e-01	7.112941e-01	7.077941e-01	7.014283e-01	6.989551e-01	7.001809e-01	7.016771e-01	7.028418e-01	7.040075e-01	7.051216e-01	7.061338e-01	7.069358e-01	7.077289e-01	7.086544e-01	7.094718e-01	7.103615e-01	7.112739e-01	7.123168e-01	7.134751e-01	7.145463e-01	7.154212e-01	7.163200e-01	7.172746e-01	7.182119e-01	7.192023e-01	7.202000e-01	7.212710e-01	7.222966e-01	7.233471e-01	7.242639e-01	7.253065e-01	7.263836e-01	7.273527e-01	7.241556e-01	7.186920e-01	7.171986e-01	7.181423e-01	7.195036e-01	7.206499e-01	7.217266e-01	7.226637e-01	7.234990e-01	7.242527e-01	7.251484e-01	7.259761e-01	7.268246e-01	7.276833e-01	7.290484e-01	7.299282e-01	7.187482e-01	6.919124e-01	6.775510e-01	6.788822e-01	6.820948e-01	6.827512e-01	6.830792e-01	6.837916e-01	6.847545e-01	6.856561e-01	6.863787e-01	6.870268e-01	6.878863e-01	6.885848e-01	6.900172e-01	6.915351e-01	6.871794e-01	6.472457e-01	6.085836e-01	6.034605e-01	6.054899e-01	6.092776e-01	6.106010e-01	6.104709e-01	6.105835e-01	6.112495e-01	6.118933e-01	6.121088e-01	6.123155e-01	6.126560e-01	6.129839e-01	6.149367e-01	6.168045e-01	5.851236e-01	5.375094e-01	5.312747e-01	5.776258e-01	7.668021e-01	1.101700e+00	1.154945e+00	1.153279e+00	1.157432e+00	1.162535e+00	1.166155e+00	1.169013e+00	1.172101e+00	1.174503e+00	1.176154e+00	1.178040e+00	1.178046e+00	1.181186e+00	1.187336e+00	1.192001e+00	1.195346e+00	1.199032e+00	1.202241e+00	1.205739e+00	1.209184e+00	1.212508e+00	1.215752e+00	1.219260e+00	1.222863e+00	1.227215e+00	1.231220e+00	1.236337e+00	1.240940e+00	1.239826e+00	1.237196e+00	1.238530e+00	1.239541e+00	1.241142e+00	1.242907e+00	1.244842e+00	1.246865e+00	1.249600e+00	1.252528e+00	1.255851e+00	1.260958e+00	1.263833e+00	1.272984e+00	1.272720e+00	1.261027e+00	1.259565e+00	1.257351e+00	1.255821e+00	1.254727e+00	1.254255e+00	1.253930e+00	1.254331e+00	1.255042e+00	1.257083e+00	1.257800e+00	1.264207e+00	1.263385e+00	1.251881e+00	1.246681e+00	1.241943e+00	1.237835e+00	1.233926e+00	1.230291e+00	1.226945e+00	1.223715e+00	1.220977e+00	1.218086e+00	1.218014e+00	1.213370e+00	1.204893e+00	1.197981e+00	1.191557e+00	1.185105e+00	1.178114e+00	1.170674e+00	1.162158e+00	1.151878e+00	1.140333e+00	1.123104e+00	1.119409e+00	1.125411e+00	1.121293e+00	1.114720e+00	1.107422e+00	1.097410e+00	1.083311e+00	1.064158e+00	1.030624e+00	1.021576e+00	1.056269e+00	1.071931e+00	1.073326e+00	1.073609e+00	1.070420e+00	1.063366e+00	1.045984e+00	1.049170e+00	1.082053e+00	1.100425e+00	1.107969e+00	1.113786e+00	1.118437e+00	1.119519e+00	1.125252e+00	1.140650e+00	1.152016e+00	1.159992e+00	1.167132e+00	1.174617e+00	1.181641e+00	1.186622e+00	1.189327e+00	1.193962e+00	1.198739e+00	1.203366e+00	1.209314e+00	1.212458e+00	1.212312e+00	1.214465e+00	1.217424e+00	1.220141e+00	1.223120e+00	1.224925e+00	1.225416e+00	1.227770e+00	1.229651e+00	1.231502e+00	1.234078e+00	1.235876e+00	1.238150e+00	1.240497e+00	1.242573e+00	1.245880e+00	1.248845e+00	1.251493e+00	1.254518e+00	1.258327e+00	1.261348e+00	1.264676e+00	1.269193e+00	1.273177e+00	1.278336e+00	1.281988e+00	1.293166e+00	1.286286e+00	1.306619e+00	1.389370e+00	1.354495e+00	1.356703e+00	1.355845e+00	1.357426e+00	1.357372e+00	1.359017e+00	1.359488e+00	1.359013e+00	1.361330e+00	1.361330e+00	1.360404e+00	1.361766e+00	1.363371e+00	1.362670e+00	1.362291e+00	1.362696e+00	1.365518e+00	1.365494e+00	1.363541e+00	1.363710e+00	1.363731e+00	1.367249e+00	1.367125e+00	1.364353e+00	1.363599e+00	1.362501e+00	1.365518e+00	1.367178e+00	1.364512e+00	1.361479e+00	1.359961e+00	1.357993e+00	1.360237e+00	1.361655e+00	1.357531e+00	1.353575e+00	1.350404e+00	1.347845e+00	1.345709e+00	1.345678e+00	1.343597e+00	1.338943e+00	1.335962e+00	1.332643e+00	1.329719e+00	1.326808e+00	1.322899e+00	1.320126e+00	1.318725e+00	1.316697e+00	1.314685e+00	1.312466e+00	1.309850e+00	1.307566e+00	1.300315e+00	1.297680e+00	1.300160e+00	1.299948e+00	1.300055e+00	1.299496e+00	1.298530e+00	1.297408e+00	1.296280e+00	1.292757e+00	1.290327e+00	1.291463e+00	1.292415e+00	1.292934e+00	1.293166e+00	1.293144e+00	1.292987e+00	1.292790e+00	1.292583e+00	1.292279e+00	1.291993e+00	1.291658e+00	1.291377e+00	1.291112e+00	1.290828e+00	1.290633e+00	1.290328e+00	1.290225e+00	1.290102e+00	1.290095e+00	1.290111e+00	1.290061e+00	1.292757e+00	1.292895e+00	1.290491e+00	1.288942e+00	1.287496e+00	1.286499e+00	1.285501e+00	1.284759e+00	1.283954e+00	1.283364e+00	1.282895e+00	1.282515e+00	1.282330e+00	1.284102e+00	1.285017e+00	1.282210e+00	1.279528e+00	1.277524e+00	1.275601e+00	1.274083e+00	1.272533e+00	1.271160e+00	1.269822e+00	1.268485e+00	1.267204e+00	1.265894e+00	1.264608e+00	1.263336e+00	1.262136e+00	1.260778e+00	1.259430e+00	1.258071e+00	1.256714e+00	1.255342e+00	1.253920e+00	1.252464e+00	1.250996e+00	1.249362e+00	1.247840e+00	1.245986e+00	1.244137e+00	1.242153e+00	1.239271e+00	1.234026e+00	1.232887e+00	1.234747e+00	1.235053e+00	1.235088e+00	1.234660e+00	1.234009e+00	1.233151e+00	1.232208e+00	1.231150e+00	1.229857e+00	1.228582e+00	1.226839e+00	1.225010e+00	1.223019e+00	1.217725e+00	1.211045e+00	1.212170e+00	1.216750e+00	1.218883e+00	1.220609e+00	1.221519e+00	1.222126e+00	1.222496e+00	1.222665e+00	1.222726e+00	1.222662e+00	1.222624e+00	1.222378e+00	1.221978e+00	1.221673e+00	1.220600e+00	1.217845e+00	1.217729e+00	1.220292e+00	1.221346e+00	1.222737e+00	1.223389e+00	1.224132e+00	1.224755e+00	1.225306e+00	1.225925e+00	1.226472e+00	1.227202e+00	1.227897e+00	1.228734e+00	1.229669e+00	1.230535e+00	1.234315e+00	1.236035e+00	1.233881e+00	1.232485e+00	1.231368e+00	1.230704e+00	1.230359e+00	1.230209e+00	1.230246e+00	1.230363e+00	1.230754e+00	1.231224e+00	1.231929e+00	1.233066e+00	1.234349e+00	1.235717e+00	1.242115e+00	1.248161e+00	1.244594e+00	1.238488e+00	1.234161e+00	1.231019e+00	1.228622e+00	1.226671e+00	1.224979e+00	1.223634e+00	1.222357e+00	1.221380e+00	1.220418e+00	1.219971e+00	1.219326e+00	1.219114e+00	1.221520e+00	1.223687e+00	1.220209e+00	1.215602e+00	1.211455e+00	1.208406e+00	1.202953e+00	1.204750e+00	1.213572e+00	1.160177e+00	8.528490e-01	6.497670e-01	6.212417e-01	6.124659e-01	6.112370e-01	6.073919e-01	6.137460e-01	6.381009e-01	6.577798e-01	6.544028e-01	6.518636e-01	6.495530e-01	6.470391e-01	6.439746e-01	6.416190e-01	6.406465e-01	6.396781e-01	6.361017e-01	6.295411e-01	6.238271e-01	6.256843e-01	6.873985e-01	7.600557e-01	7.779663e-01	7.740415e-01	7.708675e-01	7.673579e-01	7.642284e-01	7.613162e-01	7.586091e-01	7.564864e-01	7.522947e-01	7.424134e-01	7.436626e-01	8.165394e-01	9.409258e-01	1.046486e+00	1.095568e+00	1.127373e+00	1.124600e+00	1.057460e+00	9.520723e-01	9.043946e-01	9.001090e-01	8.894673e-01	8.695757e-01	8.789487e-01	9.673222e-01	1.076091e+00	1.120046e+00	1.146447e+00	1.163762e+00	1.175911e+00	1.185529e+00	1.193753e+00	1.200579e+00	1.202127e+00	1.191879e+00	1.190250e+00	1.211359e+00	1.232761e+00	1.249076e+00	1.262085e+00	1.272882e+00	1.282775e+00	1.292369e+00	1.300707e+00	1.311994e+00	1.327540e+00	1.334530e+00	1.331826e+00	1.333547e+00	1.335995e+00	1.339921e+00	1.344860e+00	1.349921e+00	1.355535e+00	1.372735e+00	1.380661e+00	1.373336e+00	1.369849e+00	1.367314e+00	1.367144e+00	1.368075e+00	1.369275e+00	1.375997e+00	1.381111e+00	1.377587e+00	1.374438e+00	1.372229e+00	1.371182e+00	1.370551e+00	1.370078e+00	1.369737e+00	1.370070e+00	1.370489e+00	1.370576e+00	1.370911e+00	1.369470e+00	1.363517e+00	1.364955e+00	1.371481e+00	1.375298e+00	1.378589e+00	1.375845e+00	1.375594e+00	1.382943e+00	1.389682e+00	1.394914e+00	1.392067e+00	1.395725e+00	1.406989e+00	1.413237e+00	1.412701e+00	1.418266e+00	1.431518e+00	1.430309e+00	1.437609e+00	1.452544e+00	1.454017e+00	1.474074e+00	1.485760e+00	1.509025e+00	1.536111e+00	1.562175e+00	1.603927e+00	1.611530e+00	1.681095e+00	1.295020e+00	1.294736e+00	1.294894e+00	1.291983e+00	1.291722e+00	1.292040e+00	1.292290e+00	1.291679e+00	1.291397e+00	1.291382e+00	1.291535e+00	1.291849e+00	1.291796e+00	1.292247e+00	1.292477e+00	1.291564e+00	1.291658e+00	1.291119e+00	1.291142e+00	1.291335e+00	1.292605e+00	1.292744e+00	1.291436e+00	1.290398e+00	1.290672e+00	1.290425e+00	1.292878e+00	1.292885e+00	1.290943e+00	1.291159e+00	1.291012e+00	1.293053e+00	1.293227e+00	1.290137e+00	1.371886e+00	1.371521e+00	1.372138e+00	1.368719e+00	1.367180e+00	1.366883e+00	1.373169e+00	1.374080e+00	1.373079e+00	1.344900e+00	1.346338e+00	1.342444e+00	1.346037e+00	1.344444e+00	1.367263e+00	1.368263e+00	1.367652e+00	1.372628e+00	1.372245e+00	1.376689e+00	1.373376e+00	1.372068e+00	1.372296e+00	1.372770e+00	1.371906e+00	1.372280e+00	1.373373e+00	1.370548e+00	1.368565e+00	1.370391e+00	1.369016e+00	1.334099e+00	1.332832e+00	1.335155e+00	1.321336e+00	1.323820e+00	1.320520e+00	7.377395e-01	7.420277e-01	7.419056e-01	1.233361e+00	7.412533e-01	7.416050e-01	1.007098e+00	9.704540e-01	9.739329e-01	7.398667e-01	7.410316e-01	7.441622e-01	7.434840e-01	7.441809e-01	7.401784e-01	7.478137e-01	7.512757e-01	7.495755e-01	7.313100e-01	7.285891e-01	7.435409e-01	7.453324e-01	7.344500e-01	7.236836e-01	7.239930e-01	1.364566e+00	1.211171e+00	1.204394e+00	1.365727e+00	1.067738e+00	7.381863e-01	1.072501e+00	1.212595e+00	1.208751e+00	1.366590e+00	1.366734e+00	1.236997e+00	1.226472e+00	1.221266e+00	1.214860e+00	6.125914e-01	6.135506e-01	6.338294e-01	1.220555e+00	1.221059e+00	1.222865e+00	6.117768e-01	6.117096e-01	6.168306e-01	1.218373e+00	1.215851e+00	1.220159e+00	6.306327e-01	6.277168e-01	6.310692e-01	1.369643e+00	1.370723e+00	1.371527e+00	1.284268e+00	1.288491e+00	1.288348e+00	1.277568e+00	1.276452e+00	1.281544e+00	1.260705e+00	1.260049e+00	1.266278e+00	1.260203e+00	1.266952e+00	1.263828e+00	1.238912e+00	1.233496e+00	1.240165e+00	1.230141e+00	1.233082e+00	1.239071e+00	1.267846e+00	1.268319e+00	1.265770e+00	1.247293e+00	1.241855e+00	1.228082e+00	1.226783e+00	1.251724e+00	1.256488e+00	1.223494e+00	1.351874e+00	1.355519e+00	1.354709e+00	1.371269e+00	1.350223e+00	1.354191e+00	1.352076e+00	1.356344e+00	1.352615e+00	1.358817e+00	1.347643e+00	1.345598e+00	1.348563e+00	1.333239e+00	1.330780e+00	1.372164e+00	1.371186e+00	1.371896e+00	1.372332e+00	1.372691e+00	1.373265e+00	1.268055e+00	1.266909e+00	1.270388e+00	1.371356e+00	1.371816e+00	1.369875e+00	1.368441e+00	1.372020e+00	1.373496e+00	1.374173e+00	1.373730e+00	1.130627e+00	1.145731e+00	1.158337e+00	1.363866e+00	1.362336e+00	1.364245e+00	1.367874e+00	1.374570e+00	1.373558e+00	1.374398e+00	1.354348e+00	1.353806e+00	1.349135e+00	1.371530e+00	1.347605e+00	1.344463e+00	1.348895e+00	1.399208e+00	1.397476e+00	1.394789e+00	1.237300e+00	1.253472e+00	1.253384e+00	1.249550e+00	1.380400e+00	1.378961e+00	1.381489e+00	1.316026e+00	1.310952e+00	1.309957e+00	1.330269e+00	1.332356e+00	1.332286e+00	1.387848e+00	1.383801e+00	1.385841e+00	1.380529e+00	1.382314e+00	1.388296e+00	1.382700e+00	1.387645e+00	1.400516e+00	1.403070e+00	1.405235e+00	1.391502e+00	1.389304e+00	1.325469e+00	1.328545e+00	1.403324e+00	1.398066e+00	1.397371e+00	1.396678e+00	1.393083e+00	1.410259e+00	1.405990e+00	1.411111e+00	1.416225e+00	1.412717e+00	1.423952e+00	1.418975e+00	1.293094e+00	1.293217e+00	1.297350e+00	1.310476e+00	1.302030e+00	1.233819e+00	1.238993e+00	1.239398e+00	1.252687e+00	1.243976e+00	1.252831e+00	1.230489e+00	1.222579e+00	1.224155e+00	1.293614e+00	1.296183e+00	1.292044e+00	1.243216e+00	1.234046e+00	1.243777e+00	1.107286e+00	1.143382e+00	1.166547e+00	1.155145e+00	1.155750e+00	1.137261e+00	1.364210e+00	1.362069e+00	1.362039e+00	7.506331e-01	7.468599e-01	7.500070e-01	7.263250e-01	7.243928e-01	7.491962e-01	7.474727e-01	1.241250e+00	1.242081e+00	1.242223e+00	1.368820e+00	1.369777e+00	1.370823e+00	1.229001e+00	1.227941e+00	1.226788e+00	1.236786e+00	1.237091e+00	1.235332e+00	1.228073e+00	1.227820e+00	1.230474e+00	1.225311e+00	1.226426e+00	1.239668e+00	1.238356e+00	1.238085e+00	1.255673e+00	1.256301e+00	1.257242e+00	1.241076e+00	1.240351e+00	1.238842e+00	1.225270e+00	1.223320e+00	1.222438e+00	1.232612e+00	1.366578e+00	1.365873e+00	1.226040e+00	1.235110e+00	1.225429e+00	1.224280e+00	1.223939e+00	1.237503e+00	1.224226e+00	1.224611e+00	1.224730e+00	1.243163e+00	1.246054e+00	1.244071e+00	1.225676e+00	1.231465e+00	1.230734e+00	1.230480e+00	1.230769e+00	1.227808e+00	1.231121e+00	1.244380e+00	1.243986e+00	1.244598e+00	6.182972e-01	6.125316e-01	1.364550e+00	1.366142e+00	1.367963e+00	1.367609e+00	1.369341e+00	1.295527e+00	1.294692e+00	1.297116e+00	1.291141e+00	1.292030e+00	1.290301e+00	1.288038e+00	1.285880e+00	1.287162e+00	1.291356e+00	1.290293e+00	1.292378e+00	1.367077e+00	1.367905e+00	1.367161e+00	1.367436e+00	1.368975e+00	1.368709e+00	1.361493e+00	1.362937e+00	1.277729e+00	1.275070e+00	1.275610e+00	1.270895e+00	1.268497e+00	1.264197e+00	1.260048e+00	1.262376e+00	1.264321e+00	1.254341e+00	1.250825e+00	1.246613e+00	1.269581e+00	1.276130e+00	1.275342e+00	1.248866e+00	1.255826e+00	1.251615e+00	1.263472e+00	1.267390e+00	1.261669e+00	1.266267e+00	1.264885e+00	1.261799e+00	1.267687e+00	1.283085e+00	1.282263e+00	1.285658e+00	1.292774e+00	1.292218e+00	1.293329e+00	1.266284e+00	1.265178e+00	1.277775e+00	1.282148e+00	1.280029e+00	1.287250e+00	1.287115e+00	1.288871e+00	1.263461e+00	1.258312e+00	1.358172e+00	1.360196e+00	1.359611e+00	1.354204e+00	1.264323e+00	1.268125e+00	1.273559e+00	1.276258e+00	1.276355e+00	1.249082e+00	1.249552e+00	1.244889e+00	1.273121e+00	1.270899e+00	1.215214e+00	1.211322e+00	1.218262e+00	1.268632e+00	1.263166e+00	1.267982e+00	1.202117e+00	1.206208e+00	1.268139e+00	1.269650e+00	1.266548e+00	1.263821e+00	1.261028e+00	1.246428e+00	1.180908e+00	1.172176e+00	1.194713e+00	1.190641e+00	1.199026e+00	1.232754e+00	1.239606e+00	1.230276e+00	1.162026e+00	1.145338e+00	1.146035e+00	1.251231e+00	1.245395e+00	1.257502e+00	1.151178e+00	1.135396e+00	1.137281e+00	1.242491e+00	1.239590e+00	1.238432e+00	1.242495e+00	1.240589e+00	1.185310e+00	1.178146e+00	1.171363e+00	1.234857e+00	1.230988e+00	1.246315e+00	1.250107e+00	1.242854e+00	1.246877e+00	1.247007e+00	1.251986e+00	1.227588e+00	1.228782e+00	1.259764e+00	1.260902e+00	1.263036e+00	6.843474e-01	6.821999e-01	6.867509e-01	1.228629e+00	1.218094e+00	1.220740e+00	1.131321e+00	1.143512e+00	1.140101e+00	1.237144e+00	1.245916e+00	1.117048e+00	1.110959e+00	1.215987e+00	1.215239e+00	1.227661e+00	1.230579e+00	1.234528e+00	1.203943e+00	1.202891e+00	1.199000e+00	1.195168e+00	1.205512e+00	1.211456e+00	1.211313e+00	1.201970e+00	1.274754e+00	1.276003e+00	1.277422e+00	1.205537e+00	1.213674e+00	1.210830e+00	1.180572e+00	1.182192e+00	1.188630e+00	1.184573e+00	1.246194e+00	1.177137e+00	1.205695e+00	1.095877e+00	1.176689e+00	1.182906e+00	1.183286e+00	1.121080e+00	1.130604e+00	1.122059e+00	1.210807e+00	1.205659e+00	1.111508e+00	1.099570e+00	1.093510e+00	1.178627e+00	1.116972e+00	1.116605e+00	1.127615e+00	1.054051e+00	1.051730e+00	1.070466e+00	1.105145e+00	1.107497e+00	1.092229e+00	1.077564e+00	1.091793e+00	1.243430e+00	1.225145e+00	1.229430e+00	1.287824e+00	1.287935e+00	1.287445e+00	1.168584e+00	1.164289e+00	1.172309e+00	1.167734e+00	6.267241e-01	6.235346e-01	6.282751e-01	1.059518e+00	6.815780e-01	5.639257e-01	6.274753e-01	6.259784e-01	6.243679e-01	6.160873e-01	5.871404e-01	6.069344e-01	6.240557e-01	6.176904e-01	6.197323e-01	6.164277e-01	6.206715e-01	6.264604e-01	6.270957e-01	6.248549e-01	6.149036e-01	6.163979e-01	6.142575e-01	6.169111e-01	6.150115e-01	6.248193e-01	6.182840e-01	6.282659e-01	6.134544e-01	6.145246e-01	1.357273e+00	1.364349e+00	1.363902e+00	1.365523e+00	1.361593e+00	1.359797e+00	1.358990e+00	1.305615e+00	1.297243e+00	1.301731e+00	1.270806e+00	1.264846e+00	1.255928e+00	1.280083e+00	1.270919e+00	1.274781e+00	1.195528e+00	1.200735e+00	1.298160e+00	1.307574e+00	1.307752e+00	1.206698e+00	1.217947e+00	1.204575e+00	1.204342e+00	1.210580e+00	1.366633e+00	1.365328e+00	1.326801e+00	1.330051e+00	1.267737e+00	1.274742e+00	1.269976e+00	1.249493e+00	1.244853e+00	1.248103e+00	1.223923e+00	1.214001e+00	1.217259e+00	1.250148e+00	1.254911e+00	1.220606e+00	1.217257e+00	1.209381e+00	1.255935e+00	1.216946e+00	1.209796e+00	1.207719e+00	1.180086e+00	1.257825e+00	1.260420e+00	1.258365e+00	1.282964e+00	1.286806e+00	1.290139e+00	1.286160e+00	1.280233e+00	1.279111e+00	1.318594e+00	1.317944e+00	1.316580e+00	1.290181e+00	1.289770e+00	1.290423e+00	1.280988e+00	1.301085e+00	1.301162e+00	1.317539e+00	1.315100e+00	1.318835e+00	1.320689e+00	1.321863e+00	1.320616e+00	1.267634e+00	1.272582e+00	1.279637e+00	1.284040e+00	1.289772e+00	1.281818e+00	1.293332e+00	1.301574e+00	1.298664e+00	1.201814e+00	1.193671e+00	1.204130e+00	1.296143e+00	1.297978e+00	1.303677e+00	1.286524e+00	1.288302e+00	1.294736e+00	1.300870e+00	1.290863e+00	1.290807e+00	1.290619e+00	1.209347e+00	1.202102e+00	1.198201e+00	1.192173e+00	1.188097e+00	1.191821e+00	1.185346e+00	1.157624e+00	1.156932e+00	1.145343e+00	1.141847e+00	1.171095e+00	1.179623e+00	1.180413e+00	1.151513e+00	1.163653e+00	1.150762e+00	1.146538e+00	1.155179e+00	1.127633e+00	1.135465e+00	1.122437e+00	1.132570e+00	1.068774e+00	1.083494e+00	1.086614e+00	1.090202e+00	1.092539e+00	1.082406e+00	1.290477e+00	1.290487e+00	1.290268e+00	6.127395e-01	6.153331e-01	6.160118e-01	6.156995e-01	7.076338e-01	7.174689e-01	7.111382e-01	6.121935e-01	6.131336e-01	6.123947e-01	6.111410e-01	6.096694e-01	6.111101e-01	6.086801e-01	7.085747e-01	7.020807e-01	7.093864e-01	6.954081e-01	6.968242e-01	6.893733e-01	6.947941e-01	6.954647e-01	6.922137e-01	6.997085e-01	7.008828e-01	7.006016e-01	6.902351e-01	6.925260e-01	6.903882e-01	6.901871e-01	7.676133e-01	7.612429e-01	7.627878e-01	6.887469e-01	6.896721e-01	6.878178e-01	6.930251e-01	6.916603e-01	6.935793e-01	7.403491e-01	7.287747e-01	7.254840e-01	7.599951e-01	7.554766e-01	7.587430e-01	7.275432e-01	7.410985e-01	7.419648e-01	6.918047e-01	6.817176e-01	6.952845e-01	7.007396e-01	7.166180e-01	7.332576e-01	7.309071e-01	7.325563e-01	7.329410e-01	7.348997e-01	7.375980e-01	7.356959e-01	7.374968e-01	7.365282e-01	7.358785e-01	7.287426e-01	7.272853e-01	7.374324e-01	7.389818e-01	7.372305e-01	7.320434e-01	7.299251e-01	7.325301e-01	7.303686e-01	7.299019e-01	7.324485e-01	7.249172e-01	7.252425e-01	7.235675e-01	7.237945e-01	7.218458e-01	7.214124e-01	7.236279e-01	7.230244e-01	7.364629e-01	7.38594