# vtk DataFile Version 3.0
vtk output
ASCII
DATASET UNSTRUCTURED_GRID
POINTS 3565 double
1.868554e-04	9.823874e-04	0.0	4.338957e-04	2.281196e-03	0.0	1.024207e-03	3.899303e-03	0.0	2.173364e-03	5.897920e-03	0.0	4.192384e-03	8.153348e-03	0.0	7.224311e-03	1.073970e-02	0.0	1.161586e-02	1.360417e-02	0.0	1.773573e-02	1.672992e-02	0.0	2.603110e-02	2.014075e-02	0.0	3.705799e-02	2.389328e-02	0.0	5.152653e-02	2.795946e-02	0.0	7.023247e-02	3.243711e-02	0.0	9.412159e-02	3.720911e-02	0.0	1.241549e-01	4.223828e-02	0.0	1.612508e-01	4.734933e-02	0.0	2.061148e-01	5.225411e-02	0.0	2.590269e-01	5.664160e-02	0.0	3.196391e-01	6.012345e-02	0.0	3.868152e-01	6.228180e-02	0.0	4.586021e-01	6.269812e-02	0.0	5.323833e-01	6.091405e-02	0.0	6.052110e-01	5.661804e-02	0.0	6.743026e-01	5.037442e-02	0.0	7.374658e-01	4.315049e-02	0.0	7.932848e-01	3.566088e-02	0.0	8.411650e-01	2.850065e-02	0.0	8.811975e-01	2.203510e-02	0.0	9.139559e-01	1.642360e-02	0.0	9.402901e-01	1.168440e-02	0.0	9.611598e-01	7.769964e-03	0.0	9.775117e-01	4.589468e-03	0.0	9.902099e-01	2.038145e-03	0.0	0.000000e+00	0.000000e+00	0.0	1.000000e+00	0.000000e+00	0.0	9.900132e-01	5.126793e-04	0.0	9.770705e-01	9.671780e-04	0.0	9.604172e-01	1.209703e-03	0.0	9.391912e-01	9.834027e-04	0.0	9.124632e-01	-1.827183e-05	0.0	8.793123e-01	-2.147083e-03	0.0	8.389440e-01	-5.739230e-03	0.0	7.908611e-01	-1.109597e-02	0.0	7.350501e-01	-1.832235e-02	0.0	6.721616e-01	-2.727527e-02	0.0	6.035622e-01	-3.718559e-02	0.0	5.313223e-01	-4.686557e-02	0.0	4.580085e-01	-5.463825e-02	0.0	3.864224e-01	-5.872617e-02	0.0	3.192921e-01	-5.873162e-02	0.0	2.587082e-01	-5.601396e-02	0.0	2.058217e-01	-5.201112e-02	0.0	1.609748e-01	-4.737796e-02	0.0	1.238862e-01	-4.248291e-02	0.0	9.385686e-02	-3.759969e-02	0.0	6.997352e-02	-3.290535e-02	0.0	5.128345e-02	-2.842686e-02	0.0	3.684981e-02	-2.427900e-02	0.0	2.587232e-02	-2.040771e-02	0.0	1.762956e-02	-1.688489e-02	0.0	1.155500e-02	-1.367846e-02	0.0	7.195776e-03	-1.076797e-02	0.0	4.183033e-03	-8.160440e-03	0.0	2.172776e-03	-5.897986e-03	0.0	1.025779e-03	-3.898681e-03	0.0	4.345411e-04	-2.280980e-03	0.0	1.871407e-04	-9.823331e-04	0.0	1.010000e+00	0.000000e+00	0.0	1.020270e+00	0.000000e+00	0.0	1.031088e+00	0.000000e+00	0.0	1.042745e+00	0.000000e+00	0.0	1.055558e+00	0.000000e+00	0.0	1.069870e+00	0.000000e+00	0.0	1.086071e+00	0.000000e+00	0.0	1.104596e+00	0.000000e+00	0.0	1.125947e+00	0.000000e+00	0.0	1.150701e+00	0.000000e+00	0.0	1.179525e+00	0.000000e+00	0.0	1.213199e+00	0.000000e+00	0.0	1.252632e+00	0.000000e+00	0.0	1.298889e+00	0.000000e+00	0.0	1.353221e+00	0.000000e+00	0.0	1.417094e+00	0.000000e+00	0.0	1.492234e+00	0.000000e+00	0.0	1.580671e+00	0.000000e+00	0.0	1.684795e+00	0.000000e+00	0.0	1.807416e+00	0.000000e+00	0.0	1.951849e+00	0.000000e+00	0.0	2.121995e+00	0.000000e+00	0.0	2.322450e+00	0.000000e+00	0.0	2.558628e+00	0.000000e+00	0.0	2.836910e+00	0.000000e+00	0.0	3.164814e+00	0.000000e+00	0.0	3.551196e+00	0.000000e+00	0.0	4.006495e+00	0.000000e+00	0.0	4.543010e+00	0.000000e+00	0.0	5.175234e+00	0.000000e+00	0.0	5.920245e+00	0.000000e+00	0.0	6.798169e+00	0.000000e+00	0.0	7.832721e+00	0.000000e+00	0.0	9.051848e+00	0.000000e+00	0.0	1.048848e+01	0.000000e+00	0.0	1.218143e+01	0.000000e+00	0.0	1.417644e+01	0.000000e+00	0.0	1.652738e+01	0.000000e+00	0.0	1.929776e+01	0.000000e+00	0.0	2.256244e+01	0.000000e+00	0.0	2.640959e+01	0.000000e+00	0.0	3.094314e+01	0.000000e+00	0.0	3.628555e+01	0.000000e+00	0.0	4.258115e+01	0.000000e+00	0.0	5.000000e+01	0.000000e+00	0.0	5.000000e+01	2.070000e-05	0.0	5.000000e+01	5.152775e-05	0.0	5.000000e+01	1.075661e-04	0.0	5.000000e+01	2.162327e-04	0.0	5.000000e+01	4.306939e-04	0.0	5.000000e+01	8.558779e-04	0.0	5.000000e+01	1.699812e-03	0.0	5.000000e+01	3.375401e-03	0.0	5.000000e+01	6.702449e-03	0.0	5.000000e+01	1.330876e-02	0.0	5.000000e+01	2.642656e-02	0.0	5.000000e+01	5.247390e-02	0.0	5.000000e+01	1.041948e-01	0.0	5.000000e+01	2.068944e-01	0.0	5.000000e+01	4.108198e-01	0.0	5.000000e+01	8.157443e-01	0.0	5.000000e+01	1.619783e+00	0.0	5.000000e+01	3.216321e+00	0.0	5.000000e+01	6.386487e+00	0.0	5.000000e+01	1.268133e+01	0.0	5.000000e+01	2.518067e+01	0.0	5.000000e+01	5.000000e+01	0.0	5.000000e+01	-2.070000e-05	0.0	5.000000e+01	-5.152775e-05	0.0	5.000000e+01	-1.075661e-04	0.0	5.000000e+01	-2.162327e-04	0.0	5.000000e+01	-4.306939e-04	0.0	5.000000e+01	-8.558779e-04	0.0	5.000000e+01	-1.699812e-03	0.0	5.000000e+01	-3.375401e-03	0.0	5.000000e+01	-6.702449e-03	0.0	5.000000e+01	-1.330876e-02	0.0	5.000000e+01	-2.642656e-02	0.0	5.000000e+01	-5.247390e-02	0.0	5.000000e+01	-1.041948e-01	0.0	5.000000e+01	-2.068944e-01	0.0	5.000000e+01	-4.108198e-01	0.0	5.000000e+01	-8.157443e-01	0.0	5.000000e+01	-1.619783e+00	0.0	5.000000e+01	-3.216321e+00	0.0	5.000000e+01	-6.386487e+00	0.0	5.000000e+01	-1.268133e+01	0.0	5.000000e+01	-2.518067e+01	0.0	5.000000e+01	-5.000000e+01	0.0	1.000000e+00	2.070000e-05	0.0	1.000000e+00	5.152775e-05	0.0	1.000000e+00	1.075661e-04	0.0	1.000000e+00	2.162327e-04	0.0	1.000000e+00	4.306939e-04	0.0	1.000000e+00	8.558779e-04	0.0	1.000000e+00	1.699812e-03	0.0	1.000000e+00	3.375401e-03	0.0	1.000000e+00	6.702449e-03	0.0	1.000000e+00	1.330876e-02	0.0	1.000000e+00	2.642656e-02	0.0	1.000000e+00	5.247390e-02	0.0	1.000000e+00	1.041948e-01	0.0	1.000000e+00	2.068944e-01	0.0	1.000000e+00	4.108198e-01	0.0	1.000000e+00	8.157443e-01	0.0	1.000000e+00	1.619783e+00	0.0	1.000000e+00	3.216321e+00	0.0	1.000000e+00	6.386487e+00	0.0	1.000000e+00	1.268133e+01	0.0	1.000000e+00	2.518067e+01	0.0	1.000000e+00	5.000000e+01	0.0	1.000000e+00	-2.070000e-05	0.0	1.000000e+00	-5.152775e-05	0.0	1.000000e+00	-1.075661e-04	0.0	1.000000e+00	-2.162327e-04	0.0	1.000000e+00	-4.306939e-04	0.0	1.000000e+00	-8.558779e-04	0.0	1.000000e+00	-1.699812e-03	0.0	1.000000e+00	-3.375401e-03	0.0	1.000000e+00	-6.702449e-03	0.0	1.000000e+00	-1.330876e-02	0.0	1.000000e+00	-2.642656e-02	0.0	1.000000e+00	-5.247390e-02	0.0	1.000000e+00	-1.041948e-01	0.0	1.000000e+00	-2.068944e-01	0.0	1.000000e+00	-4.108198e-01	0.0	1.000000e+00	-8.157443e-01	0.0	1.000000e+00	-1.619783e+00	0.0	1.000000e+00	-3.216321e+00	0.0	1.000000e+00	-6.386487e+00	0.0	1.000000e+00	-1.268133e+01	0.0	1.000000e+00	-2.518067e+01	0.0	1.000000e+00	-5.000000e+01	0.0	1.010000e+00	5.000000e+01	0.0	1.020270e+00	5.000000e+01	0.0	1.031088e+00	5.000000e+01	0.0	1.042745e+00	5.000000e+01	0.0	1.055558e+00	5.000000e+01	0.0	1.069870e+00	5.000000e+01	0.0	1.086071e+00	5.000000e+01	0.0	1.104596e+00	5.000000e+01	0.0	1.125947e+00	5.000000e+01	0.0	1.150701e+00	5.000000e+01	0.0	1.179525e+00	5.000000e+01	0.0	1.213199e+00	5.000000e+01	0.0	1.252632e+00	5.000000e+01	0.0	1.298889e+00	5.000000e+01	0.0	1.353221e+00	5.000000e+01	0.0	1.417094e+00	5.000000e+01	0.0	1.492234e+00	5.000000e+01	0.0	1.580671e+00	5.000000e+01	0.0	1.684795e+00	5.000000e+01	0.0	1.807416e+00	5.000000e+01	0.0	1.951849e+00	5.000000e+01	0.0	2.121995e+00	5.000000e+01	0.0	2.322450e+00	5.000000e+01	0.0	2.558628e+00	5.000000e+01	0.0	2.836910e+00	5.000000e+01	0.0	3.164814e+00	5.000000e+01	0.0	3.551196e+00	5.000000e+01	0.0	4.006495e+00	5.000000e+01	0.0	4.543010e+00	5.000000e+01	0.0	5.175234e+00	5.000000e+01	0.0	5.920245e+00	5.000000e+01	0.0	6.798169e+00	5.000000e+01	0.0	7.832721e+00	5.000000e+01	0.0	9.051848e+00	5.000000e+01	0.0	1.048848e+01	5.000000e+01	0.0	1.218143e+01	5.000000e+01	0.0	1.417644e+01	5.000000e+01	0.0	1.652738e+01	5.000000e+01	0.0	1.929776e+01	5.000000e+01	0.0	2.256244e+01	5.000000e+01	0.0	2.640959e+01	5.000000e+01	0.0	3.094314e+01	5.000000e+01	0.0	3.628555e+01	5.000000e+01	0.0	4.258115e+01	5.000000e+01	0.0	1.010000e+00	-5.000000e+01	0.0	1.020270e+00	-5.000000e+01	0.0	1.031088e+00	-5.000000e+01	0.0	1.042745e+00	-5.000000e+01	0.0	1.055558e+00	-5.000000e+01	0.0	1.069870e+00	-5.000000e+01	0.0	1.086071e+00	-5.000000e+01	0.0	1.104596e+00	-5.000000e+01	0.0	1.125947e+00	-5.000000e+01	0.0	1.150701e+00	-5.000000e+01	0.0	1.179525e+00	-5.000000e+01	0.0	1.213199e+00	-5.000000e+01	0.0	1.252632e+00	-5.000000e+01	0.0	1.298889e+00	-5.000000e+01	0.0	1.353221e+00	-5.000000e+01	0.0	1.417094e+00	-5.000000e+01	0.0	1.492234e+00	-5.000000e+01	0.0	1.580671e+00	-5.000000e+01	0.0	1.684795e+00	-5.000000e+01	0.0	1.807416e+00	-5.000000e+01	0.0	1.951849e+00	-5.000000e+01	0.0	2.121995e+00	-5.000000e+01	0.0	2.322450e+00	-5.000000e+01	0.0	2.558628e+00	-5.000000e+01	0.0	2.836910e+00	-5.000000e+01	0.0	3.164814e+00	-5.000000e+01	0.0	3.551196e+00	-5.000000e+01	0.0	4.006495e+00	-5.000000e+01	0.0	4.543010e+00	-5.000000e+01	0.0	5.175234e+00	-5.000000e+01	0.0	5.920245e+00	-5.000000e+01	0.0	6.798169e+00	-5.000000e+01	0.0	7.832721e+00	-5.000000e+01	0.0	9.051848e+00	-5.000000e+01	0.0	1.048848e+01	-5.000000e+01	0.0	1.218143e+01	-5.000000e+01	0.0	1.417644e+01	-5.000000e+01	0.0	1.652738e+01	-5.000000e+01	0.0	1.929776e+01	-5.000000e+01	0.0	2.256244e+01	-5.000000e+01	0.0	2.640959e+01	-5.000000e+01	0.0	3.094314e+01	-5.000000e+01	0.0	3.628555e+01	-5.000000e+01	0.0	4.258115e+01	-5.000000e+01	0.0	9.900000e-01	5.000000e+01	0.0	9.770925e-01	4.999999e+01	0.0	9.604328e-01	4.999998e+01	0.0	9.389314e-01	4.999996e+01	0.0	9.111831e-01	4.999992e+01	0.0	8.753763e-01	4.999984e+01	0.0	8.291760e-01	4.999971e+01	0.0	7.695747e-01	4.999947e+01	0.0	6.927005e-01	4.999906e+01	0.0	5.935729e-01	4.999835e+01	0.0	4.657928e-01	4.999715e+01	0.0	3.011495e-01	4.999512e+01	0.0	8.912766e-02	4.999170e+01	0.0	-1.837064e-01	4.998599e+01	0.0	-5.344593e-01	4.997645e+01	0.0	-9.848193e-01	4.996059e+01	0.0	-1.562122e+00	4.993431e+01	0.0	-2.300545e+00	4.989095e+01	0.0	-3.242346e+00	4.981970e+01	0.0	-4.438949e+00	4.970330e+01	0.0	-5.951529e+00	4.951440e+01	0.0	-7.850399e+00	4.921047e+01	0.0	-1.021213e+01	4.872667e+01	0.0	-1.311272e+01	4.796698e+01	0.0	-1.661448e+01	4.679455e+01	0.0	-2.074441e+01	4.502422e+01	0.0	-2.546265e+01	4.242320e+01	0.0	-3.062404e+01	3.872881e+01	0.0	-3.594305e+01	3.369289e+01	0.0	-4.098260e+01	2.715624e+01	0.0	-4.519189e+01	1.913922e+01	0.0	-4.800758e+01	9.912481e+00	0.0	-4.900000e+01	3.234075e-11	0.0	-4.800758e+01	-9.912481e+00	0.0	-4.519189e+01	-1.913922e+01	0.0	-4.098260e+01	-2.715624e+01	0.0	-3.594305e+01	-3.369289e+01	0.0	-3.062404e+01	-3.872881e+01	0.0	-2.546265e+01	-
[...]
POINT_DATA 3565

SCALARS Density double 1
LOOKUP_TABLE default
5.031963e-01	4.909521e-01	4.483393e-01	4.049874e-01	3.723633e-01	3.498370e-01	3.296639e-01	3.168468e-01	3.108210e-01	3.080775e-01	3.081233e-01	3.089500e-01	3.093960e-01	3.095612e-01	3.086205e-01	3.069616e-01	3.048857e-01	3.016005e-01	2.961437e-01	2.896710e-01	2.903065e-01	3.261370e-01	3.875864e-01	4.153226e-01	4.203334e-01	4.257705e-01	4.349386e-01	4.430775e-01	4.492324e-01	4.538562e-01	4.571274e-01	4.568667e-01	5.259187e-01	4.626171e-01	4.821777e-01	4.924429e-01	4.967535e-01	4.974351e-01	4.965503e-01	4.941486e-01	4.903116e-01	4.848840e-01	4.774138e-01	4.676372e-01	4.546486e-01	4.382107e-01	4.244036e-01	4.210112e-01	4.271491e-01	4.363824e-01	4.455156e-01	4.545758e-01	4.637278e-01	4.729124e-01	4.828060e-01	4.934715e-01	5.052505e-01	5.184965e-01	5.322655e-01	5.471236e-01	5.622581e-01	5.743370e-01	5.819751e-01	5.804385e-01	5.676702e-01	5.546585e-01	4.798982e-01	4.792651e-01	4.766958e-01	4.741115e-01	4.719837e-01	4.703201e-01	4.688256e-01	4.673655e-01	4.659391e-01	4.645567e-01	4.632192e-01	4.619287e-01	4.606909e-01	4.595114e-01	4.583853e-01	4.572829e-01	4.561562e-01	4.549918e-01	4.538763e-01	4.529862e-01	4.524682e-01	4.523213e-01	4.524048e-01	4.525564e-01	4.526862e-01	4.527763e-01	4.528346e-01	4.528670e-01	4.528774e-01	4.528712e-01	4.528555e-01	4.528369e-01	4.528203e-01	4.528081e-01	4.528008e-01	4.527978e-01	4.527983e-01	4.528007e-01	4.528042e-01	4.528071e-01	4.528096e-01	4.528075e-01	4.528052e-01	4.527808e-01	4.527500e-01	4.527499e-01	4.527500e-01	4.527503e-01	4.527509e-01	4.527514e-01	4.527509e-01	4.527486e-01	4.527446e-01	4.527421e-01	4.527465e-01	4.527629e-01	4.527862e-01	4.527947e-01	4.527512e-01	4.526412e-01	4.525095e-01	4.524752e-01	4.525774e-01	4.528135e-01	4.528694e-01	4.528274e-01	4.526116e-01	4.527501e-01	4.527501e-01	4.527502e-01	4.527502e-01	4.527501e-01	4.527501e-01	4.527502e-01	4.527502e-01	4.527502e-01	4.527504e-01	4.527505e-01	4.527509e-01	4.527513e-01	4.527528e-01	4.527536e-01	4.527587e-01	4.527608e-01	4.527790e-01	4.527863e-01	4.528341e-01	4.528728e-01	4.530656e-01	4.738861e-01	4.778439e-01	4.852602e-01	4.867399e-01	4.891105e-01	4.888385e-01	4.887174e-01	4.869452e-01	4.844982e-01	4.800320e-01	4.746511e-01	4.674510e-01	4.600698e-01	4.516358e-01	4.417384e-01	4.374583e-01	4.404097e-01	4.454022e-01	4.489942e-01	4.509497e-01	4.518528e-01	4.521674e-01	4.687682e-01	4.679049e-01	4.729901e-01	4.763321e-01	4.827315e-01	4.884345e-01	4.930918e-01	4.940241e-01	4.926145e-01	4.908576e-01	4.889233e-01	4.858579e-01	4.816023e-01	4.751526e-01	4.688018e-01	4.641065e-01	4.606293e-01	4.578363e-01	4.557482e-01	4.544066e-01	4.536950e-01	4.533869e-01	4.521668e-01	4.521662e-01	4.521655e-01	4.521648e-01	4.521640e-01	4.521632e-01	4.521623e-01	4.521613e-01	4.521602e-01	4.521590e-01	4.521577e-01	4.521561e-01	4.521545e-01	4.521526e-01	4.521505e-01	4.521481e-01	4.521455e-01	4.521426e-01	4.521393e-01	4.521357e-01	4.521317e-01	4.521273e-01	4.521226e-01	4.521174e-01	4.521120e-01	4.521063e-01	4.521004e-01	4.520945e-01	4.520890e-01	4.520840e-01	4.520801e-01	4.520777e-01	4.520776e-01	4.520805e-01	4.520873e-01	4.520989e-01	4.521165e-01	4.521404e-01	4.521729e-01	4.522122e-01	4.522660e-01	4.523218e-01	4.524137e-01	4.524839e-01	4.533874e-01	4.533878e-01	4.533883e-01	4.533889e-01	4.533894e-01	4.533900e-01	4.533907e-01	4.533915e-01	4.533923e-01	4.533932e-01	4.533943e-01	4.533955e-01	4.533968e-01	4.533983e-01	4.534000e-01	4.534019e-01	4.534041e-01	4.534065e-01	4.534093e-01	4.534124e-01	4.534159e-01	4.534198e-01	4.534242e-01	4.534290e-01	4.534344e-01	4.534402e-01	4.534465e-01	4.534531e-01	4.534600e-01	4.534667e-01	4.534731e-01	4.534787e-01	4.534828e-01	4.534848e-01	4.534837e-01	4.534785e-01	4.534681e-01	4.534517e-01	4.534274e-01	4.533960e-01	4.533522e-01	4.533046e-01	4.532293e-01	4.531676e-01	4.521681e-01	4.521689e-01	4.521698e-01	4.521709e-01	4.521723e-01	4.521739e-01	4.521758e-01	4.521780e-01	4.521806e-01	4.521837e-01	4.521873e-01	4.521916e-01	4.521965e-01	4.522020e-01	4.522085e-01	4.522175e-01	4.522284e-01	4.522423e-01	4.522596e-01	4.522818e-01	4.523102e-01	4.523465e-01	4.523923e-01	4.524481e-01	4.525125e-01	4.525816e-01	4.526492e-01	4.527090e-01	4.527567e-01	4.527912e-01	4.528141e-01	4.528288e-01	4.528394e-01	4.528498e-01	4.528641e-01	4.528853e-01	4.529155e-01	4.529552e-01	4.530030e-01	4.530555e-01	4.531085e-01	4.531579e-01	4.532012e-01	4.532374e-01	4.532667e-01	4.532901e-01	4.533086e-01	4.533232e-01	4.533350e-01	4.533444e-01	4.533521e-01	4.533583e-01	4.533635e-01	4.533678e-01	4.533714e-01	4.533744e-01	4.533769e-01	4.533789e-01	4.533807e-01	4.533821e-01	4.533833e-01	4.533843e-01	4.533852e-01	4.533858e-01	4.533864e-01	4.624326e-01	4.674438e-01	4.716885e-01	4.740246e-01	4.758613e-01	4.763206e-01	4.766280e-01	4.761291e-01	4.756066e-01	4.739516e-01	4.711248e-01	4.654255e-01	4.588021e-01	4.506974e-01	4.410590e-01	4.371051e-01	4.402883e-01	4.453716e-01	4.489891e-01	4.509492e-01	4.518527e-01	4.609522e-01	4.642939e-01	4.668638e-01	4.684679e-01	4.693526e-01	4.694759e-01	4.694463e-01	4.691035e-01	4.690085e-01	4.681645e-01	4.666453e-01	4.624123e-01	4.569451e-01	4.494308e-01	4.401669e-01	4.366397e-01	4.401338e-01	4.453356e-01	4.489840e-01	4.509489e-01	4.518525e-01	4.560340e-01	4.578800e-01	4.593065e-01	4.601277e-01	4.605005e-01	4.604388e-01	4.604195e-01	4.603119e-01	4.606118e-01	4.604576e-01	4.603549e-01	4.579407e-01	4.541701e-01	4.476554e-01	4.389725e-01	4.360183e-01	4.399294e-01	4.452881e-01	4.489776e-01	4.509489e-01	4.518525e-01	4.504082e-01	4.513829e-01	4.521607e-01	4.525777e-01	4.527948e-01	4.527654e-01	4.529045e-01	4.529853e-01	4.535123e-01	4.536160e-01	4.540693e-01	4.526519e-01	4.504909e-01	4.452583e-01	4.374003e-01	4.352186e-01	4.396744e-01	4.452267e-01	4.489671e-01	4.509484e-01	4.518525e-01	4.436890e-01	4.441853e-01	4.446086e-01	4.448210e-01	4.449834e-01	4.449865e-01	4.452045e-01	4.453258e-01	4.459118e-01	4.460828e-01	4.468670e-01	4.461649e-01	4.456607e-01	4.419930e-01	4.352744e-01	4.341916e-01	4.393822e-01	4.451648e-01	4.489546e-01	4.509468e-01	4.518522e-01	4.352569e-01	4.355042e-01	4.357400e-01	4.358460e-01	4.359820e-01	4.360030e-01	4.362631e-01	4.364132e-01	4.370658e-01	4.373392e-01	4.384388e-01	4.382771e-01	4.393915e-01	4.374042e-01	4.321745e-01	4.327169e-01	4.389912e-01	4.451069e-01	4.489470e-01	4.509455e-01	4.518518e-01	4.259274e-01	4.260397e-01	4.261718e-01	4.262187e-01	4.263391e-01	4.263737e-01	4.266646e-01	4.268602e-01	4.275941e-01	4.280249e-01	4.294405e-01	4.298646e-01	4.323716e-01	4.316984e-01	4.280364e-01	4.306310e-01	4.383735e-01	4.450126e-01	4.489412e-01	4.509461e-01	4.518516e-01	4.204006e-01	4.204273e-01	4.204802e-01	4.204632e-01	4.205286e-01	4.205271e-01	4.207798e-01	4.209789e-01	4.217179e-01	4.222583e-01	4.237632e-01	4.244917e-01	4.273508e-01	4.266277e-01	4.239823e-01	4.284765e-01	4.376211e-01	4.448547e-01	4.489234e-01	4.509462e-01	4.518517e-01	4.153304e-01	4.152813e-01	4.152605e-01	4.151579e-01	4.151418e-01	4.150540e-01	4.152309e-01	4.153787e-01	4.160724e-01	4.166170e-01	4.180292e-01	4.188457e-01	4.213954e-01	4.199604e-01	4.194459e-01	4.267588e-01	4.370804e-01	4.447081e-01	4.488967e-01	4.509440e-01	4.518515e-01	3.875830e-01	3.875407e-01	3.875238e-01	3.874685e-01	3.875107e-01	3.875694e-01	3.879052e-01	3.883393e-01	3.892504e-01	3.901530e-01	3.918059e-01	3.934121e-01	3.968665e-01	3.981887e-01	4.079040e-01	4.238009e-01	4.366521e-01	4.446339e-01	4.488784e-01	4.509415e-01	4.518511e-01	3.261418e-01	3.262105e-01	3.263118e-01	3.265512e-01	3.268943e-01	3.275026e-01	3.282928e-01	3.294315e-01	3.307116e-01	3.323997e-01	3.346552e-01	3.383371e-01	3.456291e-01	3.576876e-01	3.865191e-01	4.179285e-01	4.358253e-01	4.445664e-01	4.488685e-01	4.509398e-01	4.518507e-01	2.903054e-01	2.904940e-01	2.906325e-01	2.910522e-01	2.914074e-01	2.921569e-01	2.927290e-01	2.937785e-01	2.945009e-01	2.962266e-01	2.983040e-01	3.033842e-01	3.127128e-01	3.308926e-01	3.687131e-01	4.115092e-01	4.346899e-01	4.444651e-01	4.488604e-01	4.509383e-01	4.518502e-01	2.896937e-01	2.897980e-01	2.898647e-01	2.900471e-01	2.901311e-01	2.903702e-01	2.903987e-01	2.907822e-01	2.910174e-01	2.924891e-01	2.943443e-01	2.997016e-01	3.082081e-01	3.262312e-01	3.624466e-01	4.071998e-01	4.336560e-01	4.443539e-01	4.488531e-01	4.509370e-01	4.518498e-01	2.961471e-01	2.961642e-01	2.961495e-01	2.961566e-01	2.960997e-01	2.961151e-01	2.960822e-01	2.963920e-01	2.968440e-01	2.984069e-01	3.004475e-01	3.058648e-01	3.133622e-01	3.310005e-01	3.642757e-01	4.056198e-01	4.329645e-01	4.442640e-01	4.488486e-01	4.509360e-01	4.518493e-01	3.016003e-01	3.015916e-01	3.015812e-01	3.015586e-01	3.015554e-01	3.015777e-01	3.017314e-01	3.020783e-01	3.028318e-01	3.042432e-01	3.066001e-01	3.117587e-01	3.189308e-01	3.378829e-01	3.695276e-01	4.061323e-01	4.326492e-01	4.442089e-01	4.488482e-01	4.509356e-01	4.518487e-01	3.048916e-01	3.048806e-01	3.048947e-01	3.048761e-01	3.049387e-01	3.049652e-01	3.052485e-01	3.055313e-01	3.065307e-01	3.077211e-01	3.108151e-01	3.157457e-01	3.241999e-01	3.459489e-01	3.763314e-01	4.080564e-01	4.326804e-01	4.441942e-01	4.488531e-01	4.509361e-01	4.518484e-01	3.069687e-01	3.069627e-01	3.069813e-01	3.069729e-01	3.070446e-01	3.070836e-01	3.073904e-01	3.076963e-01	3.088568e-01	3.101348e-01	3.140962e-01	3.189227e-01	3.302180e-01	3.550636e-01	3.837636e-01	4.107648e-01	4.329862e-01	4.442183e-01	4.488638e-01	4.509381e-01	4.518486e-01	3.086223e-01	3.086257e-01	3.086292e-01	3.086430e-01	3.086775e-01	3.087791e-01	3.090202e-01	3.095401e-01	3.106699e-01	3.125835e-01	3.170178e-01	3.225799e-01	3.383399e-01	3.655854e-01	3.914728e-01	4.138918e-01	4.335168e-01	4.442836e-01	4.488821e-01	4.509424e-01	4.518497e-01	3.095588e-01	3.095706e-01	3.095617e-01	3.095985e-01	3.096033e-01	3.097824e-01	3.099732e-01	3.107910e-01	3.118638e-01	3.148674e-01	3.193591e-01	3.275872e-01	3.488596e-01	3.767989e-01	3.989038e-01	4.171615e-01	4.342226e-01	4.443921e-01	4.489101e-01	4.509501e-01	4.518524e-01	3.094015e-01	3.094171e-01	3.094263e-01	3.094727e-01	3.095234e-01	3.097403e-01	3.100720e-01	3.110924e-01	3.126048e-01	3.166710e-01	3.218606e-01	3.353629e-01	3.617241e-01	3.880810e-01	4.059641e-01	4.205037e-01	4.350986e-01	4.445559e-01	4.489531e-01	4.509634e-01	4.518578e-01	3.089711e-01	3.089873e-01	3.090326e-01	3.090769e-01	3.092218e-01	3.094371e-01	3.100683e-01	3.111764e-01	3.137536e-01	3.184686e-01	3.265885e-01	3.472157e-01	3.762747e-01	3.989263e-01	4.125984e-01	4.238686e-01	4.361440e-01	4.447907e-01	4.490185e-01	4.509852e-01	4.518676e-01	3.081614e-01	3.081948e-01	3.082768e-01	3.083599e-01	3.086005e-01	3.089275e-01	3.098949e-01	3.114409e-01	3.154108e-01	3.215535e-01	3.358714e-01	3.632941e-01	3.914606e-01	4.091775e-01	4.188872e-01	4.272781e-01	4.373840e-01	4.451218e-01	4.491180e-01	4.510203e-01	4.518846e-01	3.081364e-01	3.082172e-01	3.083399e-01	3.085376e-01	3.088801e-01	3.095389e-01	3.108900e-01	3.136132e-01	3.192109e-01	3.293593e-01	3.516882e-01	3.825170e-01	4.062891e-01	4.187554e-01	4.248950e-01	4.307560e-01	4.388377e-01	4.455760e-01	4.492669e-01	4.510756e-01	4.519125e-01	3.109095e-01	3.110482e-01	3.112272e-01	3.115663e-01	3.120667e-01	3.131797e-01	3.151762e-01	3.196644e-01	3.278696e-01	3.446723e-01	3.736508e-01	4.027992e-01	4.202381e-01	4.277000e-01	4.306987e-01	4.343242e-01	4.405174e-01	4.461794e-01	4.494831e-01	4.511599e-01	4.519566e-01	3.169960e-01	3.172136e-01	3.175226e-01	3.180585e-01	3.189416e-01	3.207277e-01	3.241221e-01	3.311463e-01	3.440410e-01	3.680261e-01	3.991088e-01	4.222143e-01	4.330420e-01	4.360090e-01	4.362752e-01	4.379399e-01	4.423930e-01	4.469389e-01	4.497802e-01	4.512824e-01	4.520222e-01	3.298945e-01	3.302051e-01	3.306935e-01	3.314759e-01	3.329127e-01	3.355982e-01	3.409604e-01	3.510716e-01	3.693505e-01	3.976026e-01	4.247352e-01	4.398905e-01	4.445911e-01	4.436555e-01	4.415551e-01	4.415112e-01	4.443889e-01	4.478332e-01	4.501593e-01	4.514478e-01	4.521119e-01	3.501551e-01	3.505612e-01	3.512102e-01	3.522589e-01	3.542472e-01	3.579912e-01	3.654245e-01	3.788612e-01	4.013383e-01	4.286818e-01	4.479407e-01	4.554364e-01	4.548087e-01	4.505514e-01	4.464154e-01	4.448994e-01	4.463920e-01	4.488078e-01	4.506028e-01	4.516520e-01	4.522229e-01	3.728398e-01	3.734739e-01	3.744475e-01	3.760787e-01	3.790559e-01	3.846049e-01	3.948189e-01	4.118727e-01	4.358268e-01	4.573158e-01	4.679580e-01	4.687452e-01	4.636368e-01	4.565938e-01	4.507289e-01	4.479683e-01	4.482840e-01	4.497897e-01	4.510766e-01	4.518806e-01	4.523464e-01	4.055606e-01	4.063518e-01	4.075445e-01	4.096059e-01	4.133037e-01	4.201146e-01	4.317714e-01	4.493306e-01	4.688980e-01	4.817001e-01	4.845911e-01	4.798168e-01	4.710313e-01	4.616891e-01	4.544025e-01	4.506212e-01	4.499722e-01	4.507110e-01	4.515425e-01	4.521139e-01	4.524703e-01	4.488606e-01	4.495401e-01	4.505686e-01	4.523823e-01	4.557259e-01	4.617726e-01	4.714005e-01	4.845047e-01	4.964098e-01	5.013349e-01	4.980108e-01	4.888245e-01	4.770798e-01	4.658626e-01	4.574397e-01	4.528396e-01	4.514178e-01	4.515301e-01	4.519719e-01	4.523345e-01	4.525843e-01	4.910884e-01	4.912409e-01	4.915245e-01	4.922671e-01	4.940200e-01	4.975439e-01	5.038099e-01	5.120071e-01	5.177191e-01	5.167127e-01	5.086483e-01	4.960373e-01	4.819580e-01	4.692489e-01	4.599319e-01	4.546764e-01	4.526354e-01	4.522388e-01	4.523533e-01	4.525336e-01	4.526836e-01	5.036438e-01	5.042635e-01	5.053429e-01	5.073041e-01	5.107868e-01	5.166470e-01	5.246065e-01	5.316181e-01	5.336902e-01	5.285308e-01	5.170014e-01	5.018140e-01	4.859340e-01	4.720597e-01	4.620289e-01	4.562310e-01	4.536770e-01	4.528566e-01	4.526918e-01	4.527115e-01	4.527692e-01	5.264505e-01	5.272200e-01	5.283319e-01	5.301520e-01	5.331086e-01	5.375553e-01	5.426382e-01	5.461212e-01	5.449789e-01	5.370914e-01	5.233289e-01	5.064041e-01	4.892390e-01	4.744882e-01	4.638771e-01	4.576089e-01	4.546076e-01	4.534162e-01	4.530023e-01	4.528752e-01	4.528460e-01	5.547490e-01	5.548607e-01	5.549927e-01	5.552708e-01	5.558235e-01	5.568151e-01	5.581512e-01	5.585039e-01	5.546768e-01	5.444293e-01	5.287662e-01	5.104243e-01	4.922233e-01	4.767379e-01	4.656045e-01	4.588983e-01	4.554839e-01	4.539497e-01	4.533015e-01	4.530339e-01	4.529204e-01	5.677663e-01	5.678877e-01	5.681070e-01	5.684819e-01	5.690989e-01	5.699008e-01	5.703583e-01	5.687354e-01	5.624625e-01	5.502047e-01	5.331263e-01	5.138098e-01	4.948899e-01	4.788355e-01	4.672481e-01	4.601408e-01	4.563418e-01	4.544816e-01	4.536044e-01	4.531966e-01	4.529988e-01	5.804317e-01	5.804298e-01	5.804357e-01	5.804420e-01	5.804079e-01	5.801262e-01	5.789395e-01	5.752827e-01	5.672766e-01	5.539547e-01	5.362464e-01	5.164938e-01	4.971902e-01	4.807404e-01	4.687863e-01	4.613351e-01	4.571899e-01	4.550208e-01	4.539173e-01	4.533675e-01	4.530850e-01	5.819573e-01	5.819410e-01	5.819187e-01	5.818756e-01	5.817603e-01	5.813924e-01	5.802252e-01	5.768079e-01	5.689804e-01	5.557732e-01	5.381760e-01	5.184516e-01	4.990479e-01	4.823642e-01	4.701475e-01	4.624381e-01	4.580076e-01	4.555586e-01	4.542367e-01	4.535455e-01	4.531797e-01	5.743610e-01	5.743955e-01	5.744505e-01	5.745315e-01	5.746253e-01	5.746717e-01	5.743325e-01	5.725576e-01	5.667413e-01	5.551207e-01	5.386015e-01	5.194922e-01	5.003213e-01	4.835902e-01	4.712401e-01	4.633872e-01	4.587559e-01	4.560716e-01	4.545491e-01	4.537225e-01	4.532789e-01	5.623062e-01	5.623696e-01	5.624666e-01	5.626117e-01	5.628169e-01	5.631084e-01	5.633558e-01	5.630923e-01	5.602127e-01	5.515964e-01	5.372441e-01	5.194423e-01	5.008941e-01	4.843319e-01	4.719942e-01	4.641285e-01	4.593952e-01	4.565319e-01	4.548362e-01	4.538873e-01	4.533757e-01	5.471876e-01	5.472675e-01	5.473933e-01	5.475745e-01	5.478586e-01	5.482833e-01	5.489265e-01	5.496142e-01	5.494836e-01	5.448619e-01	5.338065e-01	5.181188e-01	5.006770e-01	4.845519e-01	4.723866e-01	4.646399e-01	4.599020e-01	4.569181e-01	4.550823e-01	4.540292e-01	4.534623e-01	5.323242e-01	5.323944e-01	5.325091e-01	5.326691e-01	5.329376e-01	5.333304e-01	5.340325e-01	5.349781e-01	5.362041e-01	5.352654e-01	5.282408e-01	5.154432e-01	4.996428e-01	4.842664e-01	4.724428e-01	4.649369e-01	4.602770e-01	4.572229e-01	4.552796e-01	4.541424e-01	4.535334e-01	5.185426e-01	5.186005e-01	5.186896e-01	5.188222e-01	5.190310e-01	5.193642e-01	5.199349e-01	5.208804e-01	5.222568e-01	5.235749e-01	5.205840e-01	5.113098e-01	4.977393e-01	4.834850e-01	4.722057e-01	4.650561e-01	4.605383e-01	4.574520e-01	4.554291e-01	4.542271e-01	4.535872e-01	5.052871e-01	5.053390e-01	5.054099e-01	5.055304e-01	5.056950e-01	5.059992e-01	5.064485e-01	5.073558e-01	5.086154e-01	5.107476e-01	5.110845e-01	5.056788e-01	4.949074e-01	4.821958e-01	4.717147e-01	4.650396e-01	4.607114e-01	4.576181e-01	4.555375e-01	4.542872e-01	4.536254e-01	4.935004e-01	4.935414e-01	4.935977e-01	4.936929e-01	4.938237e-01	4.940602e-01	4.944181e-01	4.951246e-01	4.962527e-01	4.981564e-01	5.003786e-01	4.986177e-01	4.910747e-01	4.803641e-01	4.709926e-01	4.649218e-01	4.608205e-01	4.577358e-01	4.556137e-01	4.543284e-01	4.536513e-01	4.828303e-01	4.828605e-01	4.829094e-01	4.829791e-01	4.830945e-01	4.832621e-01	4.835731e-01	4.840678e-01	4.850726e-01	4.865444e-01	4.892332e-01	4.903233e-01	4.861847e-01	4.779332e-01	4.700360e-01	4.647238e-01	4.608837e-01	4.578180e-01	4.556662e-01	4.543559e-01	4.536682e-01	4.729324e-01	4.729552e-01	4.729966e-01	4.730502e-01	4.731488e-01	4.732773e-01	4.735362e-01	4.739128e-01	4.747304e-01	4.759703e-01	4.783113e-01	4.811144e-01	4.802356e-01	4.748518e-01	4.688245e-01	4.644555e-01	4.609134e-01	4.578745e-01	4.557018e-01	4.543741e-01	4.536790e-01	4.637421e-01	4.637606e-01	4.637908e-01	4.638371e-01	4.639108e-01	4.640262e-01	4.642176e-01	4.645518e-01	4.651470e-01	4.662837e-01	4.681021e-01	4.714692e-01	4.733305e-01	4.710911e-01	4.673393e-01	4.641217e-01	4.609177e-01	4.579125e-01	4.557258e-01	4.543859e-01	4.536858e-01	4.545845e-01	4.545993e-01	4.546185e-01	4.546589e-01	4.547121e-01	4.548237e-01	4.549756e-01	4.553058e-01	4.557888e-01	4.568707e-01	4.584700e-01	4.617677e-01	4.656622e-01	4.666876e-01	4.656033e-01	4.637346e-01	4.609023e-01	4.579368e-01	4.557417e-01	4.543936e-01	4.536900e-01	4.455196e-01	4.455265e-01	4.455340e-01	4.455560e-01	4.455868e-01	4.456678e-01	4.457932e-01	4.460837e-01	4.465522e-01	4.475485e-01	4.492185e-01	4.523384e-01	4.575898e-01	4.618250e-01	4.637028e-01	4.633154e-01	4.608711e-01	4.579507e-01	4.557521e-01	4.543985e-01	4.536925e-01	4.363864e-01	4.363884e-01	4.363928e-01	4.363994e-01	4.364193e-01	4.364621e-01	4.365724e-01	4.368020e-01	4.373081e-01	4.382627e-01	4.401980e-01	4.434486e-01	4.496915e-01	4.568904e-01	4.618029e-01	4.629015e-01	4.608299e-01	4.579566e-01	4.557587e-01	4.544017e-01	4.536940e-01	4.271615e-01	4.271737e-01	4.271987e-01	4.272249e-01	4.272816e-01	4.273481e-01	4.275110e-01	4.277647e-01	4.283863e-01	4.294652e-01	4.318186e-01	4.356936e-01	4.429036e-01	4.525854e-01	4.601877e-01	4.625574e-01	4.607879e-01	4.579567e-01	4.557627e-01	4.544038e-01	4.536948e-01	4.210333e-01	4.210614e-01	4.211150e-01	4.211825e-01	4.213027e-01	4.214490e-01	4.217172e-01	4.220877e-01	4.228495e-01	4.241124e-01	4.267179e-01	4.311528e-01	4.389227e-01	4.500010e-01	4.592390e-01	4.623598e-01	4.607550e-01	4.579534e-01	4.557652e-01	4.544053e-01	4.536953e-01	4.244251e-01	4.244543e-01	4.245082e-01	4.245839e-01	4.247110e-01	4.248809e-01	4.251578e-01	4.255456e-01	4.262296e-01	4.273496e-01	4.294860e-01	4.332865e-01	4.399228e-01	4.502230e-01	4.592911e-01	4.623675e-01	4.607394e-01	4.579488e-01	4.557669e-01	4.544065e-01	4.536956e-01	4.382240e-01	4.382417e-01	4.382712e-01	4.383186e-01	4.383920e-01	4.385033e-01	4.386656e-01	4.389099e-01	4.392770e-01	4.398931e-01	4.409439e-01	4.429643e-01	4.465185e-01	4.534859e-01	4.603943e-01	4.625827e-01	4.607411e-01	4.579434e-01	4.557682e-01	4.544075e-01	4.536958e-01	4.546553e-01	4.546656e-01	4.546753e-01	4.546984e-01	4.547217e-01	4.547746e-01	4.548240e-01	4.549274e-01	4.550033e-01	4.551766e-01	4.552743e-01	4.556918e-01	4.560634e-01	4.586404e-01	4.622038e-01	4.629348e-01	4.607519e-01	4.579366e-01	4.557688e-01	4.544083e-01	4.536959e-01	4.676446e-01	4.676571e-01	4.676624e-01	4.676807e-01	4.676838e-01	4.677144e-01	4.677075e-01	4.677427e-01	4.676564e-01	4.675914e-01	4.671346e-01	4.666375e-01	4.650841e-01	4.640018e-01	4.641933e-01	4.633228e-01	4.607622e-01	4.579279e-01	4.557685e-01	4.544088e-01	4.536959e-01	4.774286e-01	4.774487e-01	4.774582e-01	4.774783e-01	4.774749e-01	4.774929