# vtk DataFile Version 3.0
vtk output
ASCII
DATASET UNSTRUCTURED_GRID
POINTS 1819 double
1.000000e+02	0.000000e+00	0.0	9.917900e+01	1.278772e+01	0.0	9.672949e+01	2.536546e+01	0.0	9.269168e+01	3.752670e+01	0.0	8.713187e+01	4.907176e+01	0.0	8.014136e+01	5.981105e+01	0.0	7.183494e+01	6.956826e+01	0.0	6.234898e+01	7.818315e+01	0.0	5.183926e+01	8.551428e+01	0.0	4.047833e+01	9.144126e+01	0.0	2.845276e+01	9.586679e+01	0.0	1.595999e+01	9.871818e+01	0.0	3.205158e+00	9.994862e+01	0.0	-9.602303e+00	9.953791e+01	0.0	-2.225209e+01	9.749279e+01	0.0	-3.453651e+01	9.384684e+01	0.0	-4.625383e+01	8.865993e+01	0.0	-5.721167e+01	8.201723e+01	0.0	-6.723009e+01	7.402780e+01	0.0	-7.614460e+01	6.482284e+01	0.0	-8.380881e+01	5.455349e+01	0.0	-9.009689e+01	4.338837e+01	0.0	-9.490557e+01	3.151082e+01	0.0	-9.815592e+01	1.911586e+01	0.0	-9.979454e+01	6.407022e+00	0.0	-9.979454e+01	-6.407022e+00	0.0	-9.815592e+01	-1.911586e+01	0.0	-9.490557e+01	-3.151082e+01	0.0	-9.009689e+01	-4.338837e+01	0.0	-8.380881e+01	-5.455349e+01	0.0	-7.614460e+01	-6.482284e+01	0.0	-6.723009e+01	-7.402780e+01	0.0	-5.721167e+01	-8.201723e+01	0.0	-4.625383e+01	-8.865993e+01	0.0	-3.453651e+01	-9.384684e+01	0.0	-2.225209e+01	-9.749279e+01	0.0	-9.602303e+00	-9.953791e+01	0.0	3.205158e+00	-9.994862e+01	0.0	1.595999e+01	-9.871818e+01	0.0	2.845276e+01	-9.586679e+01	0.0	4.047833e+01	-9.144126e+01	0.0	5.183926e+01	-8.551428e+01	0.0	6.234898e+01	-7.818315e+01	0.0	7.183494e+01	-6.956826e+01	0.0	8.014136e+01	-5.981105e+01	0.0	8.713187e+01	-4.907176e+01	0.0	9.269168e+01	-3.752670e+01	0.0	9.672949e+01	-2.536546e+01	0.0	9.917900e+01	-1.278772e+01	0.0	0.000000e+00	0.000000e+00	0.0	3.066746e-03	3.949059e-03	0.0	6.247622e-03	8.045085e-03	0.0	1.059863e-02	1.119958e-02	0.0	1.512485e-02	1.445015e-02	0.0	2.032072e-02	1.696736e-02	0.0	2.570493e-02	1.956591e-02	0.0	3.148724e-02	2.177185e-02	0.0	3.747633e-02	2.403635e-02	0.0	4.374994e-02	2.615610e-02	0.0	5.023944e-02	2.833326e-02	0.0	5.696202e-02	3.052872e-02	0.0	6.388861e-02	3.284149e-02	0.0	7.101512e-02	3.529494e-02	0.0	7.833984e-02	3.790047e-02	0.0	8.587857e-02	4.062228e-02	0.0	9.375735e-02	4.309600e-02	0.0	1.019146e-01	4.547807e-02	0.0	1.104626e-01	4.735080e-02	0.0	1.192969e-01	4.901768e-02	0.0	1.284846e-01	5.008325e-02	0.0	1.379271e-01	5.110035e-02	0.0	1.476681e-01	5.151852e-02	0.0	1.576587e-01	5.194741e-02	0.0	1.679047e-01	5.204336e-02	0.0	1.784004e-01	5.200962e-02	0.0	1.891398e-01	5.190298e-02	0.0	2.001165e-01	5.153504e-02	0.0	2.113317e-01	5.115911e-02	0.0	2.227764e-01	5.065820e-02	0.0	2.344481e-01	5.008928e-02	0.0	2.463438e-01	4.951465e-02	0.0	2.584591e-01	4.896746e-02	0.0	2.707851e-01	4.841074e-02	0.0	2.833196e-01	4.799539e-02	0.0	2.960530e-01	4.768321e-02	0.0	3.089729e-01	4.738794e-02	0.0	3.220727e-01	4.748758e-02	0.0	3.353390e-01	4.758849e-02	0.0	3.487577e-01	4.785762e-02	0.0	3.623179e-01	4.827655e-02	0.0	3.760101e-01	4.870266e-02	0.0	3.898176e-01	4.925994e-02	0.0	4.037319e-01	4.982152e-02	0.0	4.177406e-01	5.036364e-02	0.0	4.318298e-01	5.088750e-02	0.0	4.459848e-01	5.141037e-02	0.0	4.601955e-01	5.180387e-02	0.0	4.744430e-01	5.219838e-02	0.0	4.887144e-01	5.251604e-02	0.0	5.029948e-01	5.276596e-02	0.0	5.172679e-01	5.300948e-02	0.0	5.315206e-01	5.310476e-02	0.0	5.457363e-01	5.319980e-02	0.0	5.599007e-01	5.319432e-02	0.0	5.739994e-01	5.310560e-02	0.0	5.880181e-01	5.300547e-02	0.0	6.019391e-01	5.264709e-02	0.0	6.157533e-01	5.229145e-02	0.0	6.294398e-01	5.174129e-02	0.0	6.429874e-01	5.102342e-02	0.0	6.563908e-01	5.031082e-02	0.0	6.696068e-01	4.915211e-02	0.0	6.826570e-01	4.800794e-02	0.0	6.955132e-01	4.670489e-02	0.0	7.081633e-01	4.521742e-02	0.0	7.206195e-01	4.375275e-02	0.0	7.328497e-01	4.212184e-02	0.0	7.448685e-01	4.050135e-02	0.0	7.566694e-01	3.889542e-02	0.0	7.682454e-01	3.729911e-02	0.0	7.795940e-01	3.573437e-02	0.0	7.907197e-01	3.427112e-02	0.0	8.016088e-01	3.283898e-02	0.0	8.122595e-01	3.145134e-02	0.0	8.226680e-01	3.010057e-02	0.0	8.328277e-01	2.875341e-02	0.0	8.427365e-01	2.740779e-02	0.0	8.523942e-01	2.607076e-02	0.0	8.617904e-01	2.467311e-02	0.0	8.709391e-01	2.331228e-02	0.0	8.798270e-01	2.190021e-02	0.0	8.884666e-01	2.050940e-02	0.0	8.968576e-01	1.913118e-02	0.0	9.049985e-01	1.774444e-02	0.0	9.128997e-01	1.639852e-02	0.0	9.205563e-01	1.505011e-02	0.0	9.279777e-01	1.373466e-02	0.0	9.351658e-01	1.244633e-02	0.0	9.421227e-01	1.117532e-02	0.0	9.488561e-01	9.944479e-03	0.0	9.553645e-01	8.722950e-03	0.0	9.616579e-01	7.541780e-03	0.0	9.677363e-01	6.378055e-03	0.0	9.736078e-01	5.249991e-03	0.0	9.792739e-01	4.141456e-03	0.0	9.847416e-01	3.064214e-03	0.0	9.900147e-01	2.011771e-03	0.0	9.950975e-01	9.821086e-04	0.0	1.000000e+00	0.000000e+00	0.0	9.950059e-01	2.397176e-04	0.0	9.898226e-01	4.388576e-04	0.0	9.844452e-01	5.862418e-04	0.0	9.788697e-01	6.890366e-04	0.0	9.730919e-01	7.674974e-04	0.0	9.671066e-01	7.881045e-04	0.0	9.609100e-01	7.860433e-04	0.0	9.544975e-01	7.182858e-04	0.0	9.478648e-01	6.346934e-04	0.0	9.410090e-01	4.547645e-04	0.0	9.339244e-01	2.688309e-04	0.0	9.266107e-01	-2.594700e-05	0.0	9.190618e-01	-3.545801e-04	0.0	9.112774e-01	-7.662129e-04	0.0	9.032577e-01	-1.317206e-03	0.0	8.949931e-01	-1.885024e-03	0.0	8.865060e-01	-2.751820e-03	0.0	8.777740e-01	-3.685448e-03	0.0	8.688173e-01	-4.835050e-03	0.0	8.596477e-01	-6.297323e-03	0.0	8.502303e-01	-7.810841e-03	0.0	8.406675e-01	-9.915560e-03	0.0	8.308579e-01	-1.207460e-02	0.0	8.208743e-01	-1.458499e-02	0.0	8.106764e-01	-1.727332e-02	0.0	8.002625e-01	-2.011138e-02	0.0	7.896443e-01	-2.313132e-02	0.0	7.787938e-01	-2.621781e-02	0.0	7.677167e-01	-2.937550e-02	0.0	7.564160e-01	-3.259694e-02	0.0	7.448700e-01	-3.578377e-02	0.0	7.330931e-01	-3.896431e-02	0.0	7.211060e-01	-4.218595e-02	0.0	7.088415e-01	-4.515580e-02	0.0	6.963847e-01	-4.817222e-02	0.0	6.836942e-01	-5.100754e-02	0.0	6.707707e-01	-5.361972e-02	0.0	6.576816e-01	-5.626535e-02	0.0	6.443461e-01	-5.843297e-02	0.0	6.308556e-01	-6.056519e-02	0.0	6.172086e-01	-6.254799e-02	0.0	6.033988e-01	-6.424685e-02	0.0	5.894815e-01	-6.595895e-02	0.0	5.754364e-01	-6.737863e-02	0.0	5.613049e-01	-6.875330e-02	0.0	5.470987e-01	-7.004053e-02	0.0	5.328256e-01	-7.116307e-02	0.0	5.185153e-01	-7.228854e-02	0.0	5.041655e-01	-7.316947e-02	0.0	4.898058e-01	-7.401483e-02	0.0	4.754472e-01	-7.472494e-02	0.0	4.611014e-01	-7.522677e-02	0.0	4.467930e-01	-7.572729e-02	0.0	4.325291e-01	-7.585794e-02	0.0	4.183312e-01	-7.595521e-02	0.0	4.042153e-01	-7.589196e-02	0.0	3.901955e-01	-7.562661e-02	0.0	3.762842e-01	-7.536331e-02	0.0	3.625002e-01	-7.488989e-02	0.0	3.488505e-01	-7.441147e-02	0.0	3.353486e-01	-7.390202e-02	0.0	3.220059e-01	-7.335690e-02	0.0	3.088320e-01	-7.281867e-02	0.0	2.958377e-01	-7.227377e-02	0.0	2.830322e-01	-7.173620e-02	0.0	2.704293e-01	-7.111005e-02	0.0	2.580384e-01	-7.037462e-02	0.0	2.458610e-01	-6.965186e-02	0.0	2.339390e-01	-6.850280e-02	0.0	2.222460e-01	-6.733729e-02	0.0	2.108203e-01	-6.592330e-02	0.0	1.996887e-01	-6.409348e-02	0.0	1.887956e-01	-6.230286e-02	0.0	1.782452e-01	-6.003617e-02	0.0	1.679609e-01	-5.770049e-02	0.0	1.579393e-01	-5.534370e-02	0.0	1.482326e-01	-5.276096e-02	0.0	1.387701e-01	-5.024319e-02	0.0	1.295663e-01	-4.773872e-02	0.0	1.206160e-01	-4.526650e-02	0.0	1.119088e-01	-4.286209e-02	0.0	1.034192e-01	-4.061612e-02	0.0	9.517100e-02	-3.843405e-02	0.0	8.715465e-02	-3.634526e-02	0.0	7.936735e-02	-3.435095e-02	0.0	7.181525e-02	-3.241679e-02	0.0	6.449569e-02	-3.054082e-02	0.0	5.740510e-02	-2.872354e-02	0.0	5.055833e-02	-2.689423e-02	0.0	4.393749e-02	-2.510576e-02	0.0	3.758231e-02	-2.320754e-02	0.0	3.145352e-02	-2.132010e-02	0.0	2.565876e-02	-1.912633e-02	0.0	2.014215e-02	-1.682126e-02	0.0	1.498000e-02	-1.422456e-02	0.0	1.026116e-02	-1.126929e-02	0.0	5.948676e-03	-8.080497e-03	0.0	2.229931e-03	-4.464157e-03	0.0	8.475691e-01	-5.582424e-02	0.0	8.637132e-01	-4.675858e-02	0.0	8.489975e-01	-3.956513e-02	0.0	8.801190e+01	2.755755e+01	0.0	8.297112e+01	3.570224e+01	0.0	8.101155e+01	2.671333e+01	0.0	7.197217e+01	-1.150973e+01	0.0	7.457985e+01	-2.444609e+01	0.0	8.607674e+01	-1.534911e+01	0.0	9.126650e+01	-4.566618e+00	0.0	2.712897e+01	2.423396e+01	0.0	3.782860e+01	2.740206e+01	0.0	3.035629e+01	3.499799e+01	0.0	7.528876e+01	1.906104e+01	0.0	7.427891e+01	3.137198e+01	0.0	6.777276e+01	-3.635593e+01	0.0	7.532337e+01	-4.407891e+01	0.0	8.083454e+01	-3.632872e+01	0.0	8.618246e+01	-2.780322e+01	0.0	5.540845e+01	2.286417e+01	0.0	4.848265e+01	3.018064e+01	0.0	4.526807e+01	1.992148e+01	0.0	5.566492e+01	-5.502788e+01	0.0	6.200035e+01	-6.153145e+01	0.0	6.557389e+01	-5.532582e+01	0.0	6.894618e+01	5.966331e+01	0.0	7.281540e+01	5.046432e+01	0.0	6.004388e+01	6.492678e+01	0.0	4.754575e+01	-6.381902e+01	0.0	4.592389e+01	-7.317663e+01	0.0	5.563540e+01	-6.924044e+01	0.0	6.590205e+01	-4.752066e+01	0.0	4.886474e+01	7.189963e+01	0.0	3.701091e+01	5.533188e+01	0.0	3.089640e+01	6.315623e+01	0.0	2.672234e+01	5.315468e+01	0.0	2.427569e+01	8.142653e+01	0.0	2.426004e+01	7.250356e+01	0.0	3.161652e+01	7.875225e+01	0.0	3.745199e+01	-6.650577e+01	0.0	2.697710e+01	-7.372982e+01	0.0	3.883180e+01	-7.968427e+01	0.0	-4.011699e+00	4.775324e+01	0.0	5.420601e+00	4.881412e+01	0.0	-1.307306e+00	5.650241e+01	0.0	2.035700e+01	8.887297e+01	0.0	1.373935e+01	8.038723e+01	0.0	8.287913e-01	-6.167203e-02	0.0	8.464050e-01	-8.183295e-02	0.0	3.780409e-01	6.684423e-02	0.0	3.691169e-01	5.741449e-02	0.0	3.812549e-01	5.653327e-02	0.0	9.082529e-01	-7.679736e-03	0.0	9.143870e-01	-5.567998e-03	0.0	8.786440e-01	-8.366549e-02	0.0	9.019084e-01	-7.335288e-02	0.0	8.830472e-01	-5.496567e-02	0.0	9.739275e-01	-9.457055e-03	0.0	9.759011e-01	-3.820525e-03	0.0	9.701135e-01	-4.210267e-03	0.0	1.322710e-01	7.443775e-02	0.0	1.401376e-01	6.587640e-02	0.0	1.457232e-01	7.526962e-02	0.0	1.008870e-01	5.842970e-02	0.0	1.087984e-01	5.564587e-02	0.0	1.081656e-01	6.432473e-02	0.0	6.848419e-02	7.837058e-02	0.0	5.473805e-02	6.761152e-02	0.0	6.682622e-02	6.386052e-02	0.0	-3.305291e-01	1.199599e+00	0.0	1.766611e-01	1.254887e+00	0.0	-2.896835e-01	1.717384e+00	0.0	7.794849e-02	4.589778e-02	0.0	8.586298e-02	4.671868e-02	0.0	8.233272e-02	5.356373e-02	0.0	3.576016e-01	5.647085e-02	0.0	9.374009e-01	-4.943057e-03	0.0	9.441559e-01	-4.5593
[...]
POINT_DATA 1819

SCALARS Density double 1
LOOKUP_TABLE default
1.291717e+00	1.291778e+00	1.292077e+00	1.292198e+00	1.292116e+00	1.292059e+00	1.292025e+00	1.291973e+00	1.291912e+00	1.291856e+00	1.291815e+00	1.291795e+00	1.291804e+00	1.291850e+00	1.291927e+00	1.292004e+00	1.292079e+00	1.292134e+00	1.292178e+00	1.292211e+00	1.292234e+00	1.292253e+00	1.292266e+00	1.292277e+00	1.292287e+00	1.292297e+00	1.292307e+00	1.292319e+00	1.292334e+00	1.292353e+00	1.292378e+00	1.292410e+00	1.292454e+00	1.292503e+00	1.292565e+00	1.292637e+00	1.292714e+00	1.292767e+00	1.292780e+00	1.292757e+00	1.292709e+00	1.292644e+00	1.292584e+00	1.292517e+00	1.292453e+00	1.292401e+00	1.292400e+00	1.292306e+00	1.292000e+00	1.557834e+00	1.266669e+00	1.243382e+00	1.134549e+00	1.095256e+00	1.071217e+00	1.088108e+00	1.098160e+00	1.124979e+00	1.142614e+00	1.161447e+00	1.171981e+00	1.175139e+00	1.164115e+00	1.133140e+00	1.070451e+00	9.989916e-01	9.205252e-01	8.475286e-01	7.812584e-01	7.351752e-01	6.950870e-01	6.628481e-01	6.489499e-01	6.298439e-01	6.258419e-01	6.169824e-01	6.093020e-01	6.102237e-01	6.089731e-01	6.129794e-01	6.225798e-01	6.305663e-01	6.463729e-01	6.625056e-01	6.660629e-01	7.235302e-01	9.125220e-01	1.159360e+00	1.212278e+00	1.196896e+00	1.185483e+00	1.178660e+00	1.167056e+00	1.156380e+00	1.148739e+00	1.138881e+00	1.131377e+00	1.126801e+00	1.118809e+00	1.114234e+00	1.106281e+00	1.099965e+00	1.096269e+00	1.087865e+00	1.082340e+00	1.070391e+00	1.063845e+00	1.062440e+00	1.054804e+00	1.058148e+00	1.053468e+00	1.060431e+00	1.084429e+00	1.094922e+00	1.113150e+00	1.130075e+00	1.144797e+00	1.163764e+00	1.176565e+00	1.187137e+00	1.198157e+00	1.204161e+00	1.206487e+00	1.209822e+00	1.211255e+00	1.212561e+00	1.215471e+00	1.217120e+00	1.222628e+00	1.228456e+00	1.233865e+00	1.242241e+00	1.247516e+00	1.254641e+00	1.261411e+00	1.267468e+00	1.274984e+00	1.280702e+00	1.287447e+00	1.293707e+00	1.300523e+00	1.307962e+00	1.315449e+00	1.323852e+00	1.332498e+00	1.345166e+00	1.359304e+00	1.384772e+00	1.364108e+00	1.453990e+00	1.424237e+00	1.426948e+00	1.428819e+00	1.430434e+00	1.431238e+00	1.432640e+00	1.434864e+00	1.436071e+00	1.438052e+00	1.440375e+00	1.441155e+00	1.446169e+00	1.446090e+00	1.452055e+00	1.454501e+00	1.453915e+00	1.458781e+00	1.453740e+00	1.458788e+00	1.454457e+00	1.444282e+00	1.438862e+00	1.423641e+00	1.412342e+00	1.396917e+00	1.379702e+00	1.364189e+00	1.344331e+00	1.325681e+00	1.308902e+00	1.284099e+00	1.265405e+00	1.246616e+00	1.220875e+00	1.207977e+00	1.180817e+00	1.165436e+00	1.163078e+00	1.148626e+00	1.147087e+00	1.142084e+00	1.138824e+00	1.142693e+00	1.139289e+00	1.138986e+00	1.132944e+00	1.128961e+00	1.127616e+00	1.120699e+00	1.119401e+00	1.111610e+00	1.112946e+00	1.121279e+00	1.124100e+00	1.136070e+00	1.144058e+00	1.154053e+00	1.168443e+00	1.176187e+00	1.183644e+00	1.188777e+00	1.190162e+00	1.184868e+00	1.177966e+00	1.173433e+00	1.154157e+00	1.147593e+00	1.147643e+00	1.138159e+00	1.155892e+00	1.165868e+00	1.184110e+00	1.222224e+00	1.241101e+00	1.269440e+00	1.299691e+00	1.319878e+00	1.340184e+00	1.360785e+00	1.375079e+00	1.384881e+00	1.395671e+00	1.403302e+00	1.410448e+00	1.417733e+00	1.422793e+00	1.429153e+00	1.433271e+00	1.441399e+00	1.447218e+00	1.457252e+00	1.479138e+00	1.496990e+00	1.537241e+00	1.579514e+00	1.603031e+00	1.696988e+00	1.410459e+00	1.423001e+00	1.423511e+00	1.292136e+00	1.292131e+00	1.292071e+00	1.292179e+00	1.292353e+00	1.292172e+00	1.291909e+00	1.291740e+00	1.291908e+00	1.291747e+00	1.292054e+00	1.292119e+00	1.292423e+00	1.292417e+00	1.292373e+00	1.292343e+00	1.292080e+00	1.292000e+00	1.292054e+00	1.292549e+00	1.292539e+00	1.292498e+00	1.292019e+00	1.292051e+00	1.291975e+00	1.292634e+00	1.292660e+00	1.292590e+00	1.292460e+00	1.291902e+00	1.291811e+00	1.291754e+00	1.291695e+00	1.291755e+00	1.291728e+00	1.291792e+00	1.292718e+00	1.292790e+00	1.292713e+00	1.291323e+00	1.291359e+00	1.291468e+00	1.291769e+00	1.291714e+00	1.396359e+00	1.393554e+00	1.179361e+00	1.189837e+00	1.184112e+00	1.444964e+00	1.443644e+00	1.401676e+00	1.409692e+00	1.418874e+00	1.424144e+00	1.426091e+00	1.428619e+00	8.297361e-01	7.569181e-01	7.709139e-01	9.816531e-01	9.044199e-01	9.430688e-01	1.150848e+00	1.181196e+00	1.160427e+00	1.267334e+00	1.236802e+00	1.267920e+00	1.126974e+00	1.073957e+00	1.103773e+00	1.199764e+00	1.436929e+00	1.435068e+00	1.432332e+00	1.433346e+00	1.440786e+00	1.441198e+00	1.449703e+00	1.447234e+00	1.288199e+00	1.287018e+00	1.284074e+00	1.291038e+00	1.291223e+00	1.292217e+00	1.288972e+00	1.289664e+00	1.265398e+00	1.270170e+00	1.287204e+00	1.270954e+00	1.243718e+00	1.240404e+00	1.294050e+00	1.300299e+00	1.296934e+00	1.184107e+00	1.344211e+00	1.349190e+00	1.356743e+00	1.301851e+00	1.290168e+00	1.286175e+00	1.346558e+00	1.351181e+00	1.360932e+00	1.242406e+00	1.249620e+00	1.259018e+00	1.310639e+00	1.302967e+00	1.302540e+00	1.313827e+00	1.308819e+00	1.302085e+00	1.316039e+00	1.296723e+00	1.291486e+00	1.271329e+00	1.274065e+00	1.264015e+00	1.282203e+00	1.275657e+00	1.278700e+00	1.271485e+00	1.273645e+00	1.269589e+00	1.264502e+00	1.257443e+00	1.259301e+00	1.264459e+00	1.450943e+00	1.460766e+00	1.462643e+00	1.503047e+00	1.472499e+00	1.474041e+00	1.498971e+00	1.480295e+00	1.502252e+00	1.527239e+00	1.515112e+00	1.536030e+00	1.410459e+00	1.432340e+00	1.419318e+00	1.342182e+00	1.360547e+00	1.347849e+00	1.391698e+00	1.403372e+00	1.393631e+00	1.360154e+00	1.379871e+00	1.378025e+00	1.319302e+00	1.333988e+00	1.308370e+00	1.302167e+00	1.286516e+00	1.397169e+00	1.383746e+00	1.282131e+00	1.442612e+00	1.435951e+00	1.432994e+00	1.279688e+00	1.263328e+00	1.304616e+00	1.521329e+00	1.554335e+00	1.303279e+00	1.299419e+00	1.299373e+00	1.433261e+00	1.437361e+00	1.325296e+00	1.278907e+00	1.301450e+00	1.415183e+00	1.423014e+00	1.414663e+00	1.140636e+00	1.137122e+00	1.133467e+00	1.131216e+00	1.158357e+00	1.158665e+00	1.152851e+00	1.172037e+00	1.099567e+00	1.088505e+00	1.208619e+00	1.184545e+00	6.804970e-01	6.436276e-01	6.486285e-01	1.140491e+00	1.121270e+00	1.172092e+00	1.035681e+00	1.119612e+00	7.010604e-01	8.380225e-01	1.105707e+00	1.108400e+00	1.121413e+00	1.116837e+00	6.333320e-01	6.311581e-01	6.312862e-01	1.102353e+00	1.192932e+00	1.243037e+00	1.090480e+00	1.088127e+00	1.082607e+00	1.088413e+00	1.139754e+00	9.666200e-01	6.307636e-01	6.542088e-01	7.027504e-01	6.808476e-01	1.096958e+00	1.104174e+00	1.214001e+00	1.211077e+00	1.212663e+00	1.214275e+00	1.220600e+00	1.214071e+00	1.218419e+00	1.222170e+00	1.218403e+00	1.214763e+00	1.227645e+00	1.220211e+00	1.207689e+00	1.207386e+00	1.205377e+00	1.197639e+00	1.193410e+00	1.187946e+00	1.245199e+00	1.249711e+00	1.253837e+00	1.245777e+00	1.242522e+00	1.240271e+00	1.209473e+00	1.186094e+00	1.196381e+00	1.194502e+00	1.202552e+00	1.172150e+00	1.158079e+00	1.186416e+00	1.211754e+00	1.164973e+00	1.174885e+00	1.178873e+00	1.128521e+00	1.120951e+00	1.112212e+00	1.106402e+00	1.093722e+00	1.129321e+00	1.141916e+00	1.120281e+00	1.130267e+00	1.107659e+00	1.118521e+00	1.070676e+00	1.063501e+00	1.062782e+00	1.062459e+00	1.290533e+00	1.290644e+00	1.064290e+00	1.068177e+00	1.070622e+00	1.068822e+00	1.076240e+00	6.242624e-01	6.164093e-01	6.238405e-01	1.291911e+00	1.291814e+00	6.375954e-01	6.657641e-01	6.477815e-01	6.384068e-01	1.284694e+00	1.285258e+00	1.279631e+00	7.017457e-01	7.573632e-01	6.876863e-01	1.291833e+00	7.161367e-01	7.142405e-01	6.761757e-01	1.288615e+00	1.286837e+00	1.288901e+00	1.291962e+00	7.938038e-01	8.087829e-01	7.529894e-01	1.163733e+00	1.177345e+00	1.178944e+00	1.192655e+00	1.218141e+00	1.233796e+00	1.292031e+00	1.176664e+00	1.170333e+00	1.176055e+00	1.181862e+00	1.170682e+00	1.292170e+00	1.291416e+00	1.291680e+00	1.291168e+00	1.292003e+00	1.291351e+00	1.292369e+00	1.292531e+00	1.292633e+00	1.292192e+00	1.292178e+00	1.292138e+00	1.259944e+00	1.213497e+00	1.209249e+00	1.292269e+00	1.292246e+00	1.292269e+00	1.292213e+00	1.292220e+00	1.292298e+00	1.292316e+00	1.292325e+00	1.292338e+00	1.292412e+00	1.292409e+00	1.292381e+00	1.292379e+00	1.292348e+00	1.292275e+00	1.292199e+00	1.292169e+00	1.292478e+00	1.292416e+00	1.292478e+00	1.292495e+00	1.189918e+00	1.159091e+00	1.185902e+00	1.292479e+00	1.292974e+00	1.293389e+00	1.293556e+00	1.298551e+00	1.303484e+00	1.300851e+00	1.292564e+00	1.292526e+00	1.293050e+00	1.293061e+00	1.293146e+00	1.292712e+00	1.292611e+00	1.292663e+00	1.315807e+00	1.317750e+00	1.308834e+00	1.296971e+00	1.295567e+00	1.295461e+00	1.292888e+00	1.292820e+00	1.292857e+00	1.294442e+00	1.295658e+00	1.294766e+00	1.296164e+00	1.296825e+00	1.408990e+00	1.414860e+00	1.407319e+00	1.292900e+00	1.293339e+00	1.292707e+00	1.405744e+00	1.411026e+00	1.292775e+00	1.292782e+00	1.292718e+00	1.347546e+00	1.344845e+00	1.321891e+00	1.385806e+00	1.376725e+00	1.366991e+00	1.308174e+00	1.330876e+00	1.328471e+00	1.284247e+00	1.294133e+00	1.282281e+00	1.313358e+00	1.301272e+00	1.302332e+00	1.301252e+00	1.253910e+00	1.272779e+00	1.291849e+00	1.258374e+00	1.277445e+00	1.219003e+00	1.207945e+00	1.235345e+00	1.224733e+00	1.232830e+00	1.259603e+00	1.227927e+00	1.293047e+00	1.293273e+00	1.174931e+00	1.185846e+00	1.168022e+00	1.157932e+00	1.166681e+00	1.323973e+00	1.297207e+00	1.332692e+00	1.190898e+00	1.179866e+00	1.195505e+00	1.191460e+00	1.189186e+00	1.190684e+00	1.186081e+00	1.185865e+00	1.180352e+00	1.165723e+00	1.170983e+00	1.187346e+00	1.167446e+00	1.175791e+00	1.161857e+00	1.155932e+00	1.152050e+00	1.230912e+00	1.264522e+00	1.243683e+00	1.145753e+00	1.292758e+00	1.292804e+00	1.137198e+00	1.123067e+00	1.126589e+00	1.137408e+00	1.131155e+00	1.124703e+00	1.132842e+00	1.139845e+00	1.130577e+00	1.301751e+00	1.302050e+00	1.149307e+00	1.154866e+00	1.160154e+00	1.174033e+00	1.194624e+00	1.173469e+00	1.142052e+00	1.147802e+00	1.144482e+00	1.207689e+00	1.225737e+00	1.154420e+00	1.162472e+00	1.227165e+00	1.207933e+00	1.232046e+00	1.163804e+00	1.172286e+00	1.159933e+00	1.197474e+00	1.202655e+00	1.215979e+00	1.310509e+00	1.277861e+00	1.306526e+00	1.441096e+00	1.256849e+00	1.271124e+00	1.348996e+00	1.368784e+00	1.366791e+00	1.452122e+00	1.449753e+00	1.447494e+00	1.441946e+00	1.441671e+00	1.292282e+00	1.291688e+00	1.290502e+00	6.761554e-01	1.292122e+00	1.292030e+00	1.302554e+00	1.294764e+00	1.296703e+00	1.425282e+00	1.426792e+00	1.429172e+00	1.292940e+00	1.292684e+00	1.292367e+00	1.292836e+00	1.292659e+00	1.292824e+00	1.292143e+00	1.293726e+00	1.293341e+00	1.292665e+00	1.291814e+00	1.291852e+00	1.291757e+00	1.291949e+00	1.291838e+00	1.291918e+00	1.292048e+00	1.291942e+00	1.292499e+00	1.292448e+00	1.291941e+00	1.292130e+00	1.292161e+00	1.292856e+00	1.293263e+00	1.293856e+00	1.294381e+00	1.147381e+00	1.130274e+00	1.292167e+00	1.292230e+00	1.292228e+00	1.293279e+00	1.292974e+00	1.293569e+00	1.291552e+00	1.291706e+00	1.291445e+00	1.292295e+00	1.291908e+00	1.290947e+00	1.290449e+00	1.291367e+00	1.288586e+00	1.289780e+00	1.293574e+00	1.293056e+00	1.292615e+00	1.292483e+00	1.292445e+00	1.292654e+00	1.292546e+00	1.292615e+00	1.292292e+00	1.292315e+00	1.292318e+00	1.292291e+00	1.292264e+00	1.291776e+00	1.291697e+00	1.292861e+00	1.292083e+00	1.292047e+00	1.291976e+00	1.291759e+00	1.291858e+00	1.291913e+00	1.291975e+00	1.291956e+00	1.291973e+00	1.292347e+00	1.292411e+00	1.292994e+00	1.292756e+00	1.292810e+00	1.292381e+00	1.292365e+00	1.291730e+00	1.291901e+00	1.291978e+00	1.292448e+00	1.292296e+00	1.293064e+00	1.292864e+00	1.148072e+00	1.160510e+00	1.154892e+00	1.291886e+00	1.293027e+00	1.292970e+00	1.291831e+00	1.291945e+00	1.291848e+00	1.292054e+00	1.292105e+00	1.292358e+00	1.292369e+00	1.292468e+00	1.291450e+00	1.292891e+00	1.292627e+00	1.294194e+00	1.293722e+00	1.293629e+00	1.292801e+00	1.291904e+00	1.290463e+00	1.091572e+00	1.082189e+00	1.292148e+00	1.292230e+00	1.292292e+00	1.292444e+00	1.291731e+00	1.291721e+00	1.292238e+00	1.292419e+00	1.292353e+00	1.292342e+00	1.292038e+00	1.292114e+00	1.292924e+00	1.292771e+00	1.292818e+00	1.292744e+00	1.292654e+00	1.292729e+00	1.291805e+00	1.291972e+00	1.291924e+00	1.292740e+00	1.292051e+00	1.292435e+00	1.292482e+00	1.292544e+00	1.292650e+00	1.292556e+00	1.292925e+00	1.291946e+00	1.292007e+00	1.291832e+00	1.292056e+00	1.292537e+00	1.291519e+00	1.292520e+00	1.292635e+00	1.292676e+00	1.291235e+00	1.291881e+00	1.292014e+00	1.291776e+00	1.289801e+00	1.291918e+00	1.292193e+00	1.292453e+00	1.292461e+00	1.291582e+00	1.291606e+00	1.293133e+00	1.292832e+00	1.291985e+00	1.292575e+00	1.292890e+00	1.291908e+00	1.292989e+00	1.291844e+00	1.291638e+00	1.291521e+00	1.292083e+00	1.292426e+00	1.291983e+00	1.291652e+00	1.292547e+00	1.292199e+00	6.475832e-01	1.292590e+00	1.291637e+00	1.431602e+00	1.642475e+00	1.624797e+00	1.616565e+00	1.293754e+00	1.292353e+00	1.292066e+00	1.291804e+00	1.293451e+00	1.291117e+00	1.291562e+00	1.291786e+00	1.288564e+00	1.290825e+00	1.291358e+00	1.288669e+00	1.290690e+00	1.294342e+00	1.137845e+00	1.294981e+00	1.297587e+00	1.295203e+00	1.291859e+00	1.291151e+00	1.291383e+00	1.291227e+00	7.731295e-01	1.290521e+00	1.291426e+00	1.289645e+00	1.296097e+00	1.294096e+00	1.289931e+00	1.298378e+00	1.297098e+00	1.295931e+00	1.295601e+00	1.294360e+00	1.291880e+00	1.292532e+00	1.288543e+00	1.321338e+00	1.328889e+00	1.338838e+00	1.336717e+00	1.330053e+00	1.292366e+00	1.196295e+00	1.296993e+00	1.304209e+00	1.304309e+00	1.307208e+00	1.448232e+00	1.444548e+00	1.476880e+00	1.294568e+00	1.289074e+00	1.283039e+00	1.283986e+00	1.292562e+00	1.294172e+00	1.294654e+00	1.300526e+00	1.294384e+00	1.306705e+00	1.304585e+00	1.420759e+00	1.419706e+00	1.414572e+00	1.284558e+00	1.271159e+00	1.293398e+00	1.291467e+00	1.293444e+00	1.295721e+00	1.297096e+00	1.298295e+00	1.301096e+00	1.279291e+00	1.273790e+00	1.296866e+00	1.293875e+00	1.313501e+00	1.302333e+00	1.300677e+00	1.295445e+00	1.297939e+00	1.298754e+00	1.298638e+00	1.282678e+00	1.281073e+00	1.304016e+00	1.291186e+00	1.290525e+00	1.295506e+00	9.541562e-01	1.031825e+00	9.253914e-01	1.295007e+00	1.297743e+00	1.254691e+00	1.299377e+00	1.303536e+00	1.604692e+00	1.286896e+00	1.291387e+00	1.264287e+00	1.261923e+00	1.235617e+00	1.288222e+00	1.301341e+00	1.301417e+00	1.290845e+00	1.290114e+00	1.285227e+00	1.281716e+00	1.227802e+00	1.215462e+00	1.275600e+00	1.320019e+00	1.310902e+00	1.311626e+00	1.234392e+00	1.218702e+00	1.336892e+00	1.355234e+00	1.354936e+00	1.307231e+00	1.310790e+00	9.303675e-01	1.271575e+00	1.327255e+00	1.328958e+00	1.287773e+00	1.425786e+00	1.420713e+00	1.427674e+00	1.326776e+00	1.316664e+00	1.327709e+00	1.126378e+00	1.253416e+00	1.171350e+00	1.204796e+00	1.295020e+00	1.293378e+00	1.286755e+00	1.355597e+00	1.298908e+00	1.309460e+00	1.306978e+00	1.335726e+00	1.316968e+00	1.291505e+00	1.287555e+00	1.262838e+00	6.207375e-01	6.156029e-01	1.285494e+00	1.286965e+00	1.300342e+00	1.306963e+00	1.324952e+00	1.328818e+00	1.306121e+00	1.304255e+00	1.239736e+00	1.311903e+00	1.302981e+00	1.298013e+00	1.377480e+00	1.351557e+00	1.366526e+00	1.294172e+00	1.267248e+00	1.301512e+00	1.294171e+00	1.298241e+00	1.300003e+00	1.288238e+00	1.311109e+00	1.095015e+00	1.096643e+00	1.156763e+00	1.313899e+00	1.296394e+00	1.293510e+00	1.289751e+00	1.322691e+00	1.322532e+00	1.343029e+00	1.301650e+00	1.248537e+00	1.295301e+00	1.325390e+00	1.218799e+00	1.385332e+00	1.394993e+00	1.397588e+00	1.205885e+00	1.315003e+00	1.303259e+00	1.337666e+00	1.337668e+00	1.261090e+00	1.297069e+00	1.177351e+00	1.203123e+00	1.316242e+00	1.317481e+00	1.409443e+00	1.418812e+00	1.437564e+00	6.941934e-01	1.132356e+00	1.353272e+00	1.295885e+00	1.313527e+00	1.180526e+00	1.178989e+00	1.348861e+00	1.343596e+00	1.335717e+00	1.337735e+00	1.250031e+00	1.276037e+00	1.190301e+00	1.291350e+00	1.124308e+00	1.337132e+00	1.273093e+00	1.284547e+00	1.325712e+00	1.173387e+00	1.315207e+00	1.361758e+00	1.210983e+00	1.163854e+00	1.195928e+00	1.497165e+00	1.458961e+00	1.360268e+00	1.047367e+00	1.168848e+00	1.205284e+00	1.238164e+00	1.332822e+00	1.329628e+00	1.042338e+00	9.731929e-01	1.161037e+00	1.185705e+00	1.167255e+00	1.299914e+00	1.427214e+00	1.353413e+00	1.340673e+00	1.375349e+00	1.276501e+00	1.197168e+00	1.206878e+00	1.188133e+00	1.227242e+00	1.248308e+00	1.296964e+00	1.286327e+00	1.339310e+00	8.592260e-01	1.003244e+00	7.668936e-01	8.839223e-01	1.281547e+00	1.217618e+00	1.247906e+00	1.188128e+00	1.181446e+00	1.172044e+00	1.350495e+00	1.170624e+00	1.356884e+00	1.169948e+00	1.144365e+00	1.160337e+00	1.176886e+00	1.136041e+00	1.365008e+00	1.351738e+00	1.364385e+00	1.277427e+00	1.397712e+00	1.440705e+00	1.140335e+00	1.175267e+00	1.150085e+00	1.119785e+00	1.037469e+00	6.264973e-01	6.227815e-01	1.150927e+00	1.212771e+00	1.362740e+00	1.337854e+00	1.321289e+00	1.353688e+00	1.443472e+00	1.451448e+00	1.234489e+00	1.208908e+00	1.236387e+00	8.136527e-01	1.140185e+00	1.081503e+00	1.398072e+00	1.306351e+00	1.192260e+00	6.950367e-01	9.390510e-01	1.200640e+00	1.156920e+00	1.167570e+00	1.162225e+00	1.249668e+00	1.276727e+00	1.383338e+00	1.380330e+00	1.404165e+00	1.411083e+00	1.325380e+00	1.332655e+00	1.267781e+00	1.184178e+00	1.205628e+00	1.376428e+00	1.349845e+00	1.306523e+00	1.343057e+00	1.389434e+00	1.417698e+00	1.326580e+00	1.360569e+00	1.294017e+00	1.256139e+00	1.173307e+00	1.157919e+00	1.237417e+00	1.401171e+00	1.389466e+00	1.392665e+00	1.365326e+00	1.372286e+00	1.414443e+00	1.369336e+00	1.340425e+00	1.244031e+00	1.189864e+00	1.322849e+00	1.317727e+00	1.138046e+00	1.113518e+00	1.083194e+00	1.074215e+00	1.116015e+00	1.187165e+00	1.310119e+00	1.332432e+00	1.306210e+00	1.423261e+00	1.393318e+00	1.106214e+00	1.143373e+00	1.165511e+00	1.176353e+00	1.358542e+00	1.182861e+00	1.379505e+00	1.378470e+00	1.233031e+00	1.168938e+00	1.133957e+00	1.174119e+00	1.115946e+00	1.124991e+00	9.390468e-01	8.111779e-01	1.058784e+00	1.025637e+00	1.129560e+00	1.322435e+00	1.316930e+00	8.868796e-01	7.703749e-01	7.516088e-01	6.286848e-01	6.223825e-01	6.394433e-01	1.162616e+00	1.193652e+00	1.293351e+00	1.351000e+00	1.383853e+00	1.362239e+00	1.352108e+00	1.162468e+00	1.379975e+00	1.389390e+00	1.369528e+00	1.193718e+00	1.198963e+00	1.197845e+00	1.201451e+00	1.147309e+00	1.149965e+00	1.222976e+00	1.203840e+00	1.212298e+00	1.212356e+00	1.445512e+00	1.462476e+00	1.474667e+00	1.103803e+00	1.204890e+00	1.211941e+00	1.389546e+00	1.227048e+00	1.231449e+00	1.231884e+00	1.234962e+00	1.261500e+00	1.229790e+00	1.417142e+00	1.435489e+00	1.250541e+00	1.161957e+00	1.154460e+00	1.190812e+00	1.350708e+00	1.119685e+00	1.190460e+00	1.187248e+00	1.189939e+00	1.169293e+00	1.157486e+00	1.167452e+00	1.095798e+00	1.099814e+00	1.161040e+00	1.151191e+00	1.147366e+00	1.151194e+00	1.164083e+00	1.158477e+00	1.151079e+00	1.395292e+00	1.110310e+00	1.128488e+00	1.119891e+00	1.194123e+00	1.323409e+00	1.267077e+00	1.312057e+00	1.336185e+00	1.346418e+00	1.331348e+00	1.312336e+00	1.441263e+00	1.204497e+00	1.411214e+00	1.437383e+00	1.437978e+00	1.402708e+00	1.383603e+00	1.397841e+00	6.436401e-01	6.510709e-01	6.251375e-01	6.185237e-01	1.409662e+00	1.124215e+00	1.124014e+00	1.109170e+00	6.989756e-01	8.457587e-01	8.348817e-01	1.128503e+00	1.118085e+00	1.146698e+00	1.146658e+00	1.094228e+00	1.106497e+00	1.078246e+00	1.201605e+00	1.383004e+00	1.477541e+00	1.214957e+00	1.130697e+00	1.363445e+00	1.359810e+00	1.370062e+00	1.153107e+00	1.193504e+00	1.196925e+00	1.191913e+00	1.252454e+00	1.273446e+00	1.407851e+00	1.405180e+00	1.416847e+00	1.449563e+00	1.188385e+00	1.174440e+00	1.059147e+00	1.051221e+00	9.938156e-01	1.315263e+00	1.317117e+00	1.332722e+00	1.332009e+00	1.504139e+00	1.471521e+00	1.519630e+00	1.505042e+00	1.390848e+00	1.419493e+00	1.435656e+00	9.133318e-01	1.237051e+00	1.229961e+00	1.207698e+00	1.276898e+00	1.327676e+00	1.153351e+00	1.163097e+00	1.259078e+00	1.247592e+00	1.239984e+00	1.238522e+00	1.224359e+00	1.234407e+00	1.172407e+00	1.187702e+00	8.512581e-01	1.146838e+00	1.152607e+00	1.137172e+00	1.440355e+00	1.432480e+00	1.436945e+00	1.379500e+00	1.384740e+00	1.285090e+00	1.347123e+00	1.361031e+00	1.421897e+00	1.419286e+00	1.413497e+00	1.073663e+00	1.231005e+00	1.190606e+00	1.174308e+00	1.211369e+00	1.189657e+00	1.330643e+00	1.346358e+00	1.141495e+00	1.133566e+00	1.342808e+00	1.106416e+00	1.052981e+00	1.108270e+00	1.091974e+00	1.290764e+00	1.303203e+00	1.142596e+00	1.143826e+00	1.101694e+00	1.099654e+00	1.138824e+00	1.149424e+00	6.602710e-01	6.369148e-01	1.141337e+00	1.134846e+00	1.238119e+00	1.208741