# vtk DataFile Version 3.0
vtk output
ASCII
DATASET UNSTRUCTURED_GRID
POINTS 198 double
0.000000e+00	0.000000e+00	0.0	3.066746e-03	3.949059e-03	0.0	6.247622e-03	8.045085e-03	0.0	1.059863e-02	1.119958e-02	0.0	1.512485e-02	1.445015e-02	0.0	2.032072e-02	1.696736e-02	0.0	2.570493e-02	1.956591e-02	0.0	3.148724e-02	2.177185e-02	0.0	3.747633e-02	2.403635e-02	0.0	4.374994e-02	2.615610e-02	0.0	5.023944e-02	2.833326e-02	0.0	5.696202e-02	3.052872e-02	0.0	6.388861e-02	3.284149e-02	0.0	7.101512e-02	3.529494e-02	0.0	7.833984e-02	3.790047e-02	0.0	8.587857e-02	4.062228e-02	0.0	9.375735e-02	4.309600e-02	0.0	1.019146e-01	4.547807e-02	0.0	1.104626e-01	4.735080e-02	0.0	1.192969e-01	4.901768e-02	0.0	1.284846e-01	5.008325e-02	0.0	1.379271e-01	5.110035e-02	0.0	1.476681e-01	5.151852e-02	0.0	1.576587e-01	5.194741e-02	0.0	1.679047e-01	5.204336e-02	0.0	1.784004e-01	5.200962e-02	0.0	1.891398e-01	5.190298e-02	0.0	2.001165e-01	5.153504e-02	0.0	2.113317e-01	5.115911e-02	0.0	2.227764e-01	5.065820e-02	0.0	2.344481e-01	5.008928e-02	0.0	2.463438e-01	4.951465e-02	0.0	2.584591e-01	4.896746e-02	0.0	2.707851e-01	4.841074e-02	0.0	2.833196e-01	4.799539e-02	0.0	2.960530e-01	4.768321e-02	0.0	3.089729e-01	4.738794e-02	0.0	3.220727e-01	4.748758e-02	0.0	3.353390e-01	4.758849e-02	0.0	3.487577e-01	4.785762e-02	0.0	3.623179e-01	4.827655e-02	0.0	3.760101e-01	4.870266e-02	0.0	3.898176e-01	4.925994e-02	0.0	4.037319e-01	4.982152e-02	0.0	4.177406e-01	5.036364e-02	0.0	4.318298e-01	5.088750e-02	0.0	4.459848e-01	5.141037e-02	0.0	4.601955e-01	5.180387e-02	0.0	4.744430e-01	5.219838e-02	0.0	4.887144e-01	5.251604e-02	0.0	5.029948e-01	5.276596e-02	0.0	5.172679e-01	5.300948e-02	0.0	5.315206e-01	5.310476e-02	0.0	5.457363e-01	5.319980e-02	0.0	5.599007e-01	5.319432e-02	0.0	5.739994e-01	5.310560e-02	0.0	5.880181e-01	5.300547e-02	0.0	6.019391e-01	5.264709e-02	0.0	6.157533e-01	5.229145e-02	0.0	6.294398e-01	5.174129e-02	0.0	6.429874e-01	5.102342e-02	0.0	6.563908e-01	5.031082e-02	0.0	6.696068e-01	4.915211e-02	0.0	6.826570e-01	4.800794e-02	0.0	6.955132e-01	4.670489e-02	0.0	7.081633e-01	4.521742e-02	0.0	7.206195e-01	4.375275e-02	0.0	7.328497e-01	4.212184e-02	0.0	7.448685e-01	4.050135e-02	0.0	7.566694e-01	3.889542e-02	0.0	7.682454e-01	3.729911e-02	0.0	7.795940e-01	3.573437e-02	0.0	7.907197e-01	3.427112e-02	0.0	8.016088e-01	3.283898e-02	0.0	8.122595e-01	3.145134e-02	0.0	8.226680e-01	3.010057e-02	0.0	8.328277e-01	2.875341e-02	0.0	8.427365e-01	2.740779e-02	0.0	8.523942e-01	2.607076e-02	0.0	8.617904e-01	2.467311e-02	0.0	8.709391e-01	2.331228e-02	0.0	8.798270e-01	2.190021e-02	0.0	8.884666e-01	2.050940e-02	0.0	8.968576e-01	1.913118e-02	0.0	9.049985e-01	1.774444e-02	0.0	9.128997e-01	1.639852e-02	0.0	9.205563e-01	1.505011e-02	0.0	9.279777e-01	1.373466e-02	0.0	9.351658e-01	1.244633e-02	0.0	9.421227e-01	1.117532e-02	0.0	9.488561e-01	9.944479e-03	0.0	9.553645e-01	8.722950e-03	0.0	9.616579e-01	7.541780e-03	0.0	9.677363e-01	6.378055e-03	0.0	9.736078e-01	5.249991e-03	0.0	9.792739e-01	4.141456e-03	0.0	9.847416e-01	3.064214e-03	0.0	9.900147e-01	2.011771e-03	0.0	9.950975e-01	9.821086e-04	0.0	1.000000e+00	0.000000e+00	0.0	9.950059e-01	2.397176e-04	0.0	9.898226e-01	4.388576e-04	0.0	9.844452e-01	5.862418e-04	0.0	9.788697e-01	6.890366e-04	0.0	9.730919e-01	7.674974e-04	0.0	9.671066e-01	7.881045e-04	0.0	9.609100e-01	7.860433e-04	0.0	9.544975e-01	7.182858e-04	0.0	9.478648e-01	6.346934e-04	0.0	9.410090e-01	4.547645e-04	0.0	9.339244e-01	2.688309e-04	0.0	9.266107e-01	-2.594700e-05	0.0	9.190618e-01	-3.545801e-04	0.0	9.112774e-01	-7.662129e-04	0.0	9.032577e-01	-1.317206e-03	0.0	8.949931e-01	-1.885024e-03	0.0	8.865060e-01	-2.751820e-03	0.0	8.777740e-01	-3.685448e-03	0.0	8.688173e-01	-4.835050e-03	0.0	8.596477e-01	-6.297323e-03	0.0	8.502303e-01	-7.810841e-03	0.0	8.406675e-01	-9.915560e-03	0.0	8.308579e-01	-1.207460e-02	0.0	8.208743e-01	-1.458499e-02	0.0	8.106764e-01	-1.727332e-02	0.0	8.002625e-01	-2.011138e-02	0.0	7.896443e-01	-2.313132e-02	0.0	7.787938e-01	-2.621781e-02	0.0	7.677167e-01	-2.937550e-02	0.0	7.564160e-01	-3.259694e-02	0.0	7.448700e-01	-3.578377e-02	0.0	7.330931e-01	-3.896431e-02	0.0	7.211060e-01	-4.218595e-02	0.0	7.088415e-01	-4.515580e-02	0.0	6.963847e-01	-4.817222e-02	0.0	6.836942e-01	-5.100754e-02	0.0	6.707707e-01	-5.361972e-02	0.0	6.576816e-01	-5.626535e-02	0.0	6.443461e-01	-5.843297e-02	0.0	6.308556e-01	-6.056519e-02	0.0	6.172086e-01	-6.254799e-02	0.0	6.033988e-01	-6.424685e-02	0.0	5.894815e-01	-6.595895e-02	0.0	5.754364e-01	-6.737863e-02	0.0	5.613049e-01	-6.875330e-02	0.0	5.470987e-01	-7.004053e-02	0.0	5.328256e-01	-7.116307e-02	0.0	5.185153e-01	-7.228854e-02	0.0	5.041655e-01	-7.316947e-02	0.0	4.898058e-01	-7.401483e-02	0.0	4.754472e-01	-7.472494e-02	0.0	4.611014e-01	-7.522677e-02	0.0	4.467930e-01	-7.572729e-02	0.0	4.325291e-01	-7.585794e-02	0.0	4.183312e-01	-7.595521e-02	0.0	4.042153e-01	-7.589196e-02	0.0	3.901955e-01	-7.562661e-02	0.0	3.762842e-01	-7.536331e-02	0.0	3.625002e-01	-7.488989e-02	0.0	3.488505e-01	-7.441147e-02	0.0	3.353486e-01	-7.390202e-02	0.0	3.220059e-01	-7.335690e-02	0.0	3.088320e-01	-7.281867e-02	0.0	2.958377e-01	-7.227377e-02	0.0	2.830322e-01	-7.173620e-02	0.0	2.704293e-01	-7.111005e-02	0.0	2.580384e-01	-7.037462e-02	0.0	2.458610e-01	-6.965186e-02	0.0	2.339390e-01	-6.850280e-02	0.0	2.222460e-01	-6.733729e-02	0.0	2.108203e-01	-6.592330e-02	0.0	1.996887e-01	-6.409348e-02	0.0	1.887956e-01	-6.230286e-02	0.0	1.782452e-01	-6.003617e-02	0.0	1.679609e-01	-5.770049e-02	0.0	1.579393e-01	-5.534370e-02	0.0	1.482326e-01	-5.276096e-02	0.0	1.387701e-01	-5.024319e-02	0.0	1.295663e-01	-4.773872e-02	0.0	1.206160e-01	-4.526650e-02	0.0	1.119088e-01	-4.286209e-02	0.0	1.034192e-01	-4.061612e-02	0.0	9.517100e-02	-3.843405e-02	0.0	8.715465e-02	-3.634526e-02	0.0	7.936735e-02	-3.435095e-02	0.0	7.181525e-02	-3.241679e-02	0.0	6.449569e-02	-3.054082e-02	0.0	5.740510e-02	-2.872354e-02	0.0	5.055833e-02	-2.689423e-02	0.0	4.393749e-02	-2.510576e-02	0.0	3.758231e-02	-2.320754e-02	0.0	3.145352e-02	-2.132010e-02	0.0	2.565876e-02	-1.912633e-02	0.0	2.014215e-02	-1.682126e-02	0.0	1.498000e-02	-1.422456e-02	0.0	1.026116e-02	-1.126929e-02	0.0	5.948676e-03	-8.080497e-03	0.0	2.229931e-03	-4.464157e-03	0.0	
CELLS 198	594
2	27	28	2	28	29	2	29	30	2	30	31	2	31	32	2	32	33	2	33	34	2	34	35	2	35	36	2	36	37	2	37	38	2	38	39	2	39	40	2	40	41	2	41	42	2	42	43	2	43	44	2	44	45	2	45	46	2	46	47	2	47	48	2	48	49	2	49	50	2	50	51	2	51	52	2	52	53	2	53	54	2	54	55	2	55	56	2	56	57	2	57	58	2	58	59	2	59	60	2	60	61	2	61	62	2	62	63	2	63	64	2	64	65	2	65	66	2	66	67	2	67	68	2	68	69	2	69	70	2	70	71	2	71	72	2	72	73	2	73	74	2	74	75	2	75	76	2	76	77	2	77	78	2	78	79	2	79	80	2	80	81	2	81	82	2	82	83	2	83	84	2	84	85	2	85	86	2	86	87	2	87	88	2	88	89	2	89	90	2	90	91	2	91	92	2	92	93	2	93	94	2	94	95	2	95	96	2	96	97	2	97	98	2	0	1	2	1	2	2	2	3	2	3	4	2	4	5	2	5	6	2	6	7	2	7	8	2	8	9	2	9	10	2	10	11	2	11	12	2	12	13	2	13	14	2	14	15	2	15	16	2	16	17	2	17	18	2	18	19	2	19	20	2	20	21	2	21	22	2	22	23	2	23	24	2	24	25	2	25	26	2	26	27	2	166	167	2	167	168	2	168	169	2	169	170	2	170	171	2	171	172	2	172	173	2	173	174	2	174	175	2	175	176	2	176	177	2	177	178	2	178	179	2	179	180	2	180	181	2	181	182	2	182	183	2	183	184	2	184	185	2	185	186	2	186	187	2	187	188	2	188	189	2	189	190	2	190	191	2	191	192	2	192	193	2	193	194	2	194	195	2	195	196	2	196	197	2	197	0	2	98	99	2	99	100	2	100	101	2	101	102	2	102	103	2	103	104	2	104	105	2	105	106	2	106	107	2	107	108	2	108	109	2	109	110	2	110	111	2	111	112	2	112	113	2	113	114	2	114	115	2	115	116	2	116	117	2	117	118	2	118	119	2	119	120	2	120	121	2	121	122	2	122	123	2	123	124	2	124	125	2	125	126	2	126	127	2	127	128	2	128	129	2	129	130	2	130	131	2	131	132	2	132	133	2	133	134	2	134	135	2	135	136	2	136	137	2	137	138	2	138	139	2	139	140	2	140	141	2	141	142	2	142	143	2	143	144	2	144	145	2	145	146	2	146	147	2	147	148	2	148	149	2	149	150	2	150	151	2	151	152	2	152	153	2	153	154	2	154	155	2	155	156	2	156	157	2	157	158	2	158	159	2	159	160	2	160	161	2	161	162	2	162	163	2	163	164	2	164	165	2	165	166	
CELL_TYPES 198
3	3	3	3	3	3	3	3	3	3	3	3	3	3	3	3	3	3	3	3	3	3	3	3	3	3	3	3	3	3	3	3	3	3	3	3	3	3	3	3	3	3	3	3	3	3	3	3	3	3	3	3	3	3	3	3	3	3	3	3	3	3	3	3	3	3	3	3	3	3	3	3	3	3	3	3	3	3	3	3	3	3	3	3	3	3	3	3	3	3	3	3	3	3	3	3	3	3	3	3	3	3	3	3	3	3	3	3	3	3	3	3	3	3	3	3	3	3	3	3	3	3	3	3	3	3	3	3	3	3	3	3	3	3	3	3	3	3	3	3	3	3	3	3	3	3	3	3	3	3	3	3	3	3	3	3	3	3	3	3	3	3	3	3	3	3	3	3	3	3	3	3	3	3	3	3	3	3	3	3	3	3	3	3	3	3	3	3	3	3	3	3	3	3	3	3	3	3	
POINT_DATA 198

SCALARS Density double 1
LOOKUP_TABLE default
1.557834e+00	1.266669e+00	1.243382e+00	1.134549e+00	1.095256e+00	1.071217e+00	1.088108e+00	1.098160e+00	1.124979e+00	1.142614e+00	1.161447e+00	1.171981e+00	1.175139e+00	1.164115e+00	1.133140e+00	1.070451e+00	9.989916e-01	9.205252e-01	8.475286e-01	7.812584e-01	7.351752e-01	6.950870e-01	6.628481e-01	6.489499e-01	6.298439e-01	6.258419e-01	6.169824e-01	6.093020e-01	6.102237e-01	6.089731e-01	6.129794e-01	6.225798e-01	6.305663e-01	6.463729e-01	6.625056e-01	6.660629e-01	7.235302e-01	9.125220e-01	1.159360e+00	1.212278e+00	1.196896e+00	1.185483e+00	1.178660e+00	1.167056e+00	1.156380e+00	1.148739e+00	1.138881e+00	1.131377e+00	1.126801e+00	1.118809e+00	1.114234e+00	1.106281e+00	1.099965e+00	1.096269e+00	1.087865e+00	1.082340e+00	1.070391e+00	1.063845e+00	1.062440e+00	1.054804e+00	1.058148e+00	1.053468e+00	1.060431e+00	1.084429e+00	1.094922e+00	1.113150e+00	1.130075e+00	1.144797e+00	1.163764e+00	1.176565e+00	1.187137e+00	1.198157e+00	1.204161e+00	1.206487e+00	1.209822e+00	1.211255e+00	1.212561e+00	1.215471e+00	1.217120e+00	1.222628e+00	1.228456e+00	1.233865e+00	1.242241e+00	1.247516e+00	1.254641e+00	1.261411e+00	1.267468e+00	1.274984e+00	1.280702e+00	1.287447e+00	1.293707e+00	1.300523e+00	1.307962e+00	1.315449e+00	1.323852e+00	1.332498e+00	1.345166e+00	1.359304e+00	1.384772e+00	1.364108e+00	1.453990e+00	1.424237e+00	1.426948e+00	1.428819e+00	1.430434e+00	1.431238e+00	1.432640e+00	1.434864e+00	1.436071e+00	1.438052e+00	1.440375e+00	1.441155e+00	1.446169e+00	1.446090e+00	1.452055e+00	1.454501e+00	1.453915e+00	1.458781e+00	1.453740e+00	1.458788e+00	1.454457e+00	1.444282e+00	1.438862e+00	1.423641e+00	1.412342e+00	1.396917e+00	1.379702e+00	1.364189e+00	1.344331e+00	1.325681e+00	1.308902e+00	1.284099e+00	1.265405e+00	1.246616e+00	1.220875e+00	1.207977e+00	1.180817e+00	1.165436e+00	1.163078e+00	1.148626e+00	1.147087e+00	1.142084e+00	1.138824e+00	1.142693e+00	1.139289e+00	1.138986e+00	1.132944e+00	1.128961e+00	1.127616e+00	1.120699e+00	1.119401e+00	1.111610e+00	1.112946e+00	1.121279e+00	1.124100e+00	1.136070e+00	1.144058e+00	1.154053e+00	1.168443e+00	1.176187e+00	1.183644e+00	1.188777e+00	1.190162e+00	1.184868e+00	1.177966e+00	1.173433e+00	1.154157e+00	1.147593e+00	1.147643e+00	1.138159e+00	1.155892e+00	1.165868e+00	1.184110e+00	1.222224e+00	1.241101e+00	1.269440e+00	1.299691e+00	1.319878e+00	1.340184e+00	1.360785e+00	1.375079e+00	1.384881e+00	1.395671e+00	1.403302e+00	1.410448e+00	1.417733e+00	1.422793e+00	1.429153e+00	1.433271e+00	1.441399e+00	1.447218e+00	1.457252e+00	1.479138e+00	1.496990e+00	1.537241e+00	1.579514e+00	1.603031e+00	1.696988e+00	
VECTORS Momentum double
2.304965e+01	1.942605e+02	0.0	1.598320e+02	1.981582e+02	0.0	2.092893e+02	1.998580e+02	0.0	2.444706e+02	1.740690e+02	0.0	2.663478e+02	1.577917e+02	0.0	2.792301e+02	1.352497e+02	0.0	2.872220e+02	1.237048e+02	0.0	2.913257e+02	1.104155e+02	0.0	2.942152e+02	1.050842e+02	0.0	2.953830e+02	9.946955e+01	0.0	2.945938e+02	9.752504e+01	0.0	2.946104e+02	9.720624e+01	0.0	2.948684e+02	9.990399e+01	0.0	2.970300e+02	1.037772e+02	0.0	3.014594e+02	1.085747e+02	0.0	3.057764e+02	1.043458e+02	0.0	3.098940e+02	9.459655e+01	0.0	3.102536e+02	7.954512e+01	0.0	3.073661e+02	6.302724e+01	0.0	3.008983e+02	4.589839e+01	0.0	2.952458e+02	3.294387e+01	0.0	2.888230e+02	2.164190e+01	0.0	2.819745e+02	1.191431e+01	0.0	2.800870e+02	6.990694e+00	0.0	2.747026e+02	3.949073e-01	0.0	2.743876e+02	-2.212030e+00	0.0	2.723160e+02	-5.958716e+00	0.0	2.699158e+02	-9.308758e+00	0.0	2.704641e+02	-1.067186e+01	0.0	2.699471e+02	-1.258834e+01	0.0	2.709569e+02	-1.342354e+01	0.0	2.739279e+02	-1.300247e+01	0.0	2.756507e+02	-1.253862e+01	0.0	2.803453e+02	-1.112043e+01	0.0	2.841971e+02	-8.060239e+00	0.0	2.825724e+02	-7.362333e+00	0.0	2.929380e+02	-2.319498e+00	0.0	3.081178e+02	1.221699e+00	0.0	3.065345e+02	5.106342e+00	0.0	3.035353e+02	7.461369e+00	0.0	3.035715e+02	9.253840e+00	0.0	3.039179e+02	1.061202e+01	0.0	3.053806e+02	1.240727e+01	0.0	3.064607e+02	1.228111e+01	0.0	3.071940e+02	1.164304e+01	0.0	3.088143e+02	1.142304e+01	0.0	3.105189e+02	9.995550e+00	0.0	3.113799e+02	8.536201e+00	0.0	3.128475e+02	7.776285e+00	0.0	3.134728e+02	6.189946e+00	0.0	3.148965e+02	5.441918e+00	0.0	3.156208e+02	3.760950e+00	0.0	3.159710e+02	2.052199e+00	0.0	3.172672e+02	1.028344e+00	0.0	3.173888e+02	-1.039303e+00	0.0	3.188020e+02	-2.148748e+00	0.0	3.191078e+02	-5.249427e+00	0.0	3.190250e+02	-8.297108e+00	0.0	3.200499e+02	-1.052449e+01	0.0	3.189277e+02	-1.498092e+01	0.0	3.203265e+02	-1.698717e+01	0.0	3.196279e+02	-2.238572e+01	0.0	3.174850e+02	-2.792758e+01	0.0	3.178758e+02	-2.987916e+01	0.0	3.156751e+02	-3.444690e+01	0.0	3.143589e+02	-3.703805e+01	0.0	3.128498e+02	-3.917319e+01	0.0	3.101888e+02	-4.165239e+01	0.0	3.084563e+02	-4.179522e+01	0.0	3.067884e+02	-4.199994e+01	0.0	3.048159e+02	-4.204781e+01	0.0	3.035964e+02	-4.089718e+01	0.0	3.030093e+02	-3.980850e+01	0.0	3.023160e+02	-3.956593e+01	0.0	3.019678e+02	-3.924637e+01	0.0	3.016282e+02	-3.955815e+01	0.0	3.011235e+02	-4.043166e+01	0.0	3.008256e+02	-4.124700e+01	0.0	2.997748e+02	-4.304952e+01	0.0	2.987478e+02	-4.446742e+01	0.0	2.976319e+02	-4.574702e+01	0.0	2.958900e+02	-4.733027e+01	0.0	2.946541e+02	-4.787762e+01	0.0	2.929044e+02	-4.897454e+01	0.0	2.912164e+02	-4.960078e+01	0.0	2.896127e+02	-5.013942e+01	0.0	2.877246e+02	-5.084131e+01	0.0	2.861244e+02	-5.097396e+01	0.0	2.842687e+02	-5.143883e+01	0.0	2.824967e+02	-5.162689e+01	0.0	2.805758e+02	-5.196249e+01	0.0	2.785113e+02	-5.227477e+01	0.0	2.763186e+02	-5.237409e+01	0.0	2.739166e+02	-5.253189e+01	0.0	2.711229e+02	-5.255927e+01	0.0	2.675005e+02	-5.256091e+01	0.0	2.639081e+02	-5.210904e+01	0.0	2.572313e+02	-5.158556e+01	0.0	2.488054e+02	-4.908852e+01	0.0	2.201192e+02	-1.765715e+01	0.0	2.796880e+02	-1.393041e+01	0.0	2.672032e+02	-8.542361e+00	0.0	2.679295e+02	-6.118375e+00	0.0	2.681699e+02	-4.277735e+00	0.0	2.680930e+02	-2.311635e+00	0.0	2.671172e+02	-3.758320e-01	0.0	2.667195e+02	1.473925e+00	0.0	2.659323e+02	3.092395e+00	0.0	2.650948e+02	5.185691e+00	0.0	2.643828e+02	6.922609e+00	0.0	2.634106e+02	8.787629e+00	0.0	2.624297e+02	1.105345e+01	0.0	2.612992e+02	1.257855e+01	0.0	2.598346e+02	1.585392e+01	0.0	2.585813e+02	1.770889e+01	0.0	2.562965e+02	2.196748e+01	0.0	2.553010e+02	2.663363e+01	0.0	2.543715e+02	2.996428e+01	0.0	2.532441e+02	3.664785e+01	0.0	2.535044e+02	4.044691e+01	0.0	2.522594e+02	4.810474e+01	0.0	2.545199e+02	5.605099e+01	0.0	2.582536e+02	6.075958e+01	0.0	2.609800e+02	6.724910e+01	0.0	2.661551e+02	7.128233e+01	0.0	2.704131e+02	7.529150e+01	0.0	2.755548e+02	7.837128e+01	0.0	2.810527e+02	7.993339e+01	0.0	2.859440e+02	8.149500e+01	0.0	2.914756e+02	8.175552e+01	0.0	2.963784e+02	8.094116e+01	0.0	3.006760e+02	8.107531e+01	0.0	3.064648e+02	7.810840e+01	0.0	3.104393e+02	7.521957e+01	0.0	3.136141e+02	7.313435e+01	0.0	3.186910e+02	6.771982e+01	0.0	3.206766e+02	6.502125e+01	0.0	3.245573e+02	5.909977e+01	0.0	3.269842e+02	5.221688e+01	0.0	3.264405e+02	4.953407e+01	0.0	3.288010e+02	4.400977e+01	0.0	3.289944e+02	4.047137e+01	0.0	3.296380e+02	3.688500e+01	0.0	3.304135e+02	3.275076e+01	0.0	3.300107e+02	3.104468e+01	0.0	3.310280e+02	2.797283e+01	0.0	3.310454e+02	2.608721e+01	0.0	3.317776e+02	2.324671e+01	0.0	3.322463e+02	2.008606e+01	0.0	3.319672e+02	1.806776e+01	0.0	3.330247e+02	1.411314e+01	0.0	3.326379e+02	1.178897e+01	0.0	3.333627e+02	7.277943e+00	0.0	3.332063e+02	2.677988e+00	0.0	3.319977e+02	3.994825e-01	0.0	3.322747e+02	-3.975969e+00	0.0	3.310495e+02	-6.267591e+00	0.0	3.303868e+02	-8.858149e+00	0.0	3.296199e+02	-1.151107e+01	0.0	3.282350e+02	-1.194828e+01	0.0	3.277844e+02	-1.290972e+01	0.0	3.272313e+02	-1.340891e+01	0.0	3.269833e+02	-1.351838e+01	0.0	3.271592e+02	-1.372966e+01	0.0	3.279665e+02	-1.514486e+01	0.0	3.288677e+02	-1.805261e+01	0.0	3.287567e+02	-1.950127e+01	0.0	3.302298e+02	-2.577605e+01	0.0	3.300845e+02	-3.242427e+01	0.0	3.281305e+02	-3.647541e+01	0.0	3.280447e+02	-4.731384e+01	0.0	3.236967e+02	-5.318499e+01	0.0	3.210209e+02	-6.098332e+01	0.0	3.166044e+02	-6.986497e+01	0.0	3.100512e+02	-7.130871e+01	0.0	3.056624e+02	-7.654484e+01	0.0	2.990089e+02	-7.970906e+01	0.0	2.927787e+02	-7.871486e+01	0.0	2.874886e+02	-7.890556e+01	0.0	2.821538e+02	-7.801063e+01	0.0	2.772579e+02	-7.499767e+01	0.0	2.738119e+02	-7.241238e+01	0.0	2.704473e+02	-7.101392e+01	0.0	2.671653e+02	-6.898648e+01	0.0	2.644305e+02	-6.772889e+01	0.0	2.616412e+02	-6.706276e+01	0.0	2.589838e+02	-6.636257e+01	0.0	2.559746e+02	-6.694645e+01	0.0	2.520674e+02	-6.762220e+01	0.0	2.477781e+02	-7.043360e+01	0.0	2.425063e+02	-7.358962e+01	0.0	2.337993e+02	-8.003362e+01	0.0	2.195207e+02	-8.738376e+01	0.0	1.996539e+02	-9.107286e+01	0.0	1.691015e+02	-9.491752e+01	0.0	1.234355e+02	-8.426214e+01	0.0	7.430032e+01	-6.038467e+01	0.0	-9.464009e+00	8.773061e+00	0.0	
SCALARS Energy double 1
LOOKUP_TABLE default
3.413421e+05	2.820004e+05	2.792625e+05	2.573798e+05	2.500185e+05	2.451423e+05	2.488078e+05	2.507743e+05	2.563582e+05	2.599337e+05	2.637166e+05	2.658882e+05	2.666245e+05	2.645993e+05	2.586768e+05	2.460696e+05	2.316546e+05	2.155459e+05	2.003894e+05	1.863651e+05	1.765801e+05	1.679778e+05	1.609122e+05	1.580118e+05	1.537041e+05	1.529072e+05	1.509776e+05	1.492354e+05	1.494852e+05	1.491942e+05	1.500833e+05	1.522697e+05	1.539949e+05	1.575704e+05	1.611015e+05	1.615801e+05	1.738495e+05	2.127528e+05	2.630010e+05	2.737590e+05	2.705692e+05	2.682287e+05	2.669266e+05	2.646032e+05	2.624482e+05	2.609922e+05	2.590859e+05	2.576030e+05	2.567751e+05	2.551776e+05	2.543508e+05	2.527744e+05	2.515059e+05	2.508547e+05	2.491437e+05	2.481323e+05	2.457198e+05	2.443824e+05	2.441894e+05	2.425516e+05	2.433626e+05	2.423776e+05	2.436498e+05	2.485987e+05	2.506020e+05	2.542569e+05	2.576354e+05	2.604847e+05	2.642684e+05	2.667926e+05	2.688369e+05	2.710222e+05	2.722156e+05	2.726468e+05	2.733119e+05	2.735883e+05	2.738322e+05	2.744240e+05	2.747106e+05	2.757992e+05	2.769487e+05	2.779728e+05	2.796412e+05	2.806362e+05	2.820187e+05	2.833342e+05	2.844861e+05	2.859579e+05	2.870428e+05	2.883476e+05	2.895452e+05	2.908531e+05	2.922842e+05	2.937171e+05	2.953216e+05	2.969341e+05	2.993984e+05	3.020132e+05	3.069374e+05	3.009282e+05	3.230180e+05	3.160297e+05	3.166394e+05	3.170467e+05	3.173834e+05	3.175011e+05	3.177772e+05	3.182075e+05	3.184207e+05	3.188053e+05	3.192499e+05	3.193686e+05	3.203775e+05	3.202944e+05	3.215028e+05	3.219230e+05	3.217709e+05	3.227766e+05	3.216933e+05	3.228072e+05	3.218920e+05	3.199263e+05	3.190209e+05	3.160202e+05	3.139605e+05	3.109939e+05	3.077010e+05	3.047798e+05	3.009270e+05	2.973635e+05	2.941514e+05	2.892596e+05	2.857084e+05	2.820343e+05	2.768941e+05	2.745160e+05	2.690251e+05	2.660775e+05	2.656932e+05	2.626505e+05	2.624632e+05	2.614168e+05	2.607676e+05	2.615878e+05	2.608439e+05	2.608434e+05	2.595955e+05	2.588245e+05	2.585716e+05	2.571248e+05	2.569331e+05	2.553021e+05	2.556257e+05	2.573075e+05	2.577808e+05	2.602542e+05	2.617909e+05	2.637905e+05	2.666892e+05	2.681717e+05	2.696734e+05	2.706886e+05	2.709549e+05	2.698787e+05	2.685268e+05	2.676781e+05	2.637162e+05	2.625257e+05	2.625721e+05	2.605030e+05	2.642440e+05	2.660164e+05	2.696685e+05	2.773390e+05	2.807965e+05	2.864651e+05	2.923775e+05	2.961780e+05	3.001070e+05	3.040972e+05	3.067710e+05	3.086008e+05	3.106688e+05	3.120716e+05	3.134174e+05	3.148016e+05	3.157244e+05	3.169247e+05	3.176087e+05	3.191592e+05	3.201844e+05	3.220072e+05	3.261584e+05	3.292337e+05	3.368617e+05	3.445545e+05	3.484513e+05	3.680238e+05	
SCALARS Pressure double 1
LOOKUP_TABLE default
1.316238e+05	1.025665e+05	9.823443e+04	8.707496e+04	8.250661e+04	8.008450e+04	8.154709e+04	8.263248e+04	8.519090e+04	8.696945e+04	8.890446e+04	8.993106e+04	9.015334e+04	8.883171e+04	8.535003e+04	7.892442e+04	7.164410e+04	6.393005e+04	5.692438e+04	5.082879e+04	4.662269e+04	4.305397e+04	4.033175e+04	3.901253e+04	3.751960e+04	3.710141e+04	3.634125e+04	3.575163e+04	3.578168e+04	3.569305e+04	3.602018e+04	3.674855e+04	3.744809e+04	3.867157e+04	4.003841e+04	4.063989e+04	4.581777e+04	6.429329e+04	8.898639e+04	9.429434e+04	9.281424e+04	9.168962e+04	9.092024e+04	8.972056e+04	8.863453e+04	8.777049e+04	8.668405e+04	8.588859e+04	8.532736e+04	8.449815e+04	8.393626e+04	8.309795e+04	8.244870e+04	8.197786e+04	8.113742e+04	8.047151e+04	7.925612e+04	7.860623e+04	7.837252e+04	7.769206e+04	7.789641e+04	7.746055e+04	7.830229e+04	8.063919e+04	8.182169e+04	8.370100e+04	8.546073e+04	8.708132e+04	8.905587e+04	9.041819e+04	9.158367e+04	9.274426e+04	9.337347e+04	9.364860e+04	9.399610e+04	9.415459e+04	9.430723e+04	9.459895e+04	9.481289e+04	9.539649e+04	9.601664e+04	9.663468e+04	9.750928e+04	9.811573e+04	9.889639e+04	9.963641e+04	1.003235e+05	1.011335e+05	1.017845e+05	1.025277e+05	1.032305e+05	1.039922e+05	1.048193e+05	1.056597e+05	1.066062e+05	1.076188e+05	1.090004e+05	1.106782e+05	1.134863e+05	1.132217e+05	1.184204e+05	1.163756e+05	1.165890e+05	1.167498e+05	1.169034e+05	1.170298e+05	1.171793e+05	1.174243e+05	1.175774e+05	1.177942e+05	1.180549e+05	1.181730e+05	1.186866e+05	1.187455e+05	1.193483e+05	1.196705e+05	1.196449e+05	1.201165e+05	1.196694e+05	1.200879e+05	1.196883e+05	1.185648e+05	1.178247e+05	1.162042e+05	1.148333e+05	1.131167e+05	1.111833e+05	1.093946e+05	1.072185e+05	1.051197e+05	1.032375e+05	1.005992e+05	9.847472e+04	9.644451e+04	9.376941e+04	9.223157e+04	8.947662e+04	8.775469e+04	8.742297e+04	8.607802e+04	8.579806e+04	8.532552e+04	8.498504e+04	8.533934e+04	8.504995e+04	8.495837e+04	8.437181e+04	8.393360e+04	8.377814e+04	8.312497e+04	8.292254e+04	8.218812e+04	8.227024e+04	8.311820e+04	8.350150e+04	8.466233e+04	8.555071e+04	8.658571e+04	8.805572e+04	8.892448e+04	8.968668e+04	9.022998e+04	9.038427e+04	8.985298e+04	8.910943e+04	8.858192e+04	8.669158e+04	8.588921e+04	8.585787e+04	8.504746e+04	8.669031e+04	8.794679e+04	8.983304e+04	9.373427e+04	9.600781e+04	9.894314e+04	1.022152e+05	1.045434e+05	1.067796e+05	1.090438e+05	1.107096e+05	1.118557e+05	1.130636e+05	1.139776e+05	1.148014e+05	1.156291e+05	1.162424e+05	1.169732e+05	1.175392e+05	1.184567e+05	1.191981e+05	1.204217e+05	1.229150e+05	1.252598e+05	1.298522e+05	1.349935e+05	1.382368e+05	1.471899e+05	
SCALARS Temperature double 1
LOOKUP_TABLE default
2.943362e+02	2.820804e+02	2.752260e+02	2.673623e+02	2.624239e+02	2.604361e+02	2.610759e+02	2.621292e+02	2.638027e+02	2.651536e+02	2.666579e+02	2.673126e+02	2.672533e+02	2.658290e+02	2.623920e+02	2.568474e+02	2.498325e+02	2.419356e+02	2.339776e+02	2.266446e+02	2.209209e+02	2.157766e+02	2.119646e+02	2.094225e+02	2.075179e+02	2.065172e+02	2.051906e+02	2.044060e+02	2.042688e+02	2.041813e+02	2.047059e+02	2.056248e+02	2.068851e+02	2.084198e+02	2.105317e+02	2.125532e+02	2.206011e+02	2.454441e+02	2.673841e+02	2.709654e+02	2.701398e+02	2.694358e+02	2.687215e+02	2.678124e+02	2.670131e+02	2.661691e+02	2.651497e+02	2.644591e+02	2.637979e+02	2.631005e+02	2.624239e+02	2.616707e+02	2.611172e+02	2.605013e+02	2.598223e+02	2.590053e+02	2.579412e+02	2.574002e+02	2.569744e+02	2.565873e+02	2.564491e+02	2.561471e+02	2.572304e+02	2.590452e+02	2.603248e+02	2.619432e+02	2.634449e+02	2.649884e+02	2.665803e+02	2.677136e+02	2.687494e+02	2.696519e+02	2.701279e+02	2.704014e+02	2.706565e+02	2.707923e+02	2.709392e+02	2.711265e+02	2.713716e+02	2.718119e+02	2.722809e+02	2.728322e+02	2.734453e+02	2.739825e+02	2.745942e+02	2.751641e+02	2.757374e+02	2.763253e+02	2.768624e+02	2.774227e+02	2.779730e+02	2.785562e+02	2.791751e+02	2.798116e+02	2.805262e+02	2.813532e+02	2.822817e+02	2.836454e+02	2.854928e+02	2.891419e+02	2.837237e+02	2.846492e+02	2.846294e+02	2.846486e+02	2.847014e+02	2.848491e+02	2.849340e+02	2.850870e+02	2.852189e+02	2.853513e+02	2.855216e+02	2.856524e+02	2.858992e+02	2.860569e+02	2.863278e+02	2.866180e+02	2.866720e+02	2.868420e+02	2.867653e+02	2.867725e+02	2.866692e+02	2.859791e+02	2.852643e+02	2.843490e+02	2.832425e+02	2.820894e+02	2.807272e+02	2.793520e+02	2.778393e+02	2.762330e+02	2.747647e+02	2.729143e+02	2.710976e+02	2.695101e+02	2.675596e+02	2.659815e+02	2.639717e+02	2.623083e+02	2.618466e+02	2.610622e+02	2.605622e+02	2.602623e+02	2.599657e+02	2.601657e+02	2.600581e+02	2.598472e+02	2.594295e+02	2.589925e+02	2.588212e+02	2.583883e+02	2.580579e+02	2.575651e+02	2.575128e+02	2.582337e+02	2.587734e+02	2.596064e+02	2.604989e+02	2.613670e+02	2.625309e+02	2.633754e+02	2.639594e+02	2.644117e+02	2.645556e+02	2.641757e+02	2.635247e+02	2.629766e+02	2.616630e+02	2.607239e+02	2.606176e+02	2.603088e+02	2.612665e+02	2.627853e+02	2.642862e+02	2.671639e+02	2.694820e+02	2.715212e+02	2.739716e+02	2.759262e+02	2.775581e+02	2.791525e+02	2.804710e+02	2.813689e+02	2.822087e+02	2.829429e+02	2.835441e+02	2.841207e+02	2.846120e+02	2.851267e+02	2.856834e+02	2.862896e+02	2.869233e+02	2.878726e+02	2.894854e+02	2.914896e+02	2.942644e+02	2.977282e+02	3.004084e+02	3.021549e+02	
SCALARS Mach double 1
LOOKUP_TABLE default
3.651140e-01	5.969423e-01	6.998127e-01	8.069707e-01	8.703735e-01	8.952621e-01	8.872862e-01	8.740835e-01	8.529112e-01	8.356295e-01	8.161689e-01	8.076225e-01	8.083986e-01	8.269208e-01	8.707756e-01	9.394436e-01	1.023585e+00	1.115853e+00	1.207284e+00	1.290917e+00	1.356165e+00	1.415003e+00	1.458823e+00	1.488184e+00	1.510267e+00	1.521903e+00	1.537364e+00	1.546529e+00	1.548134e+00	1.549157e+00	1.543024e+00	1.532298e+00	1.517622e+00	1.499799e+00	1.475357e+00	1.452042e+00	1.359816e+00	1.075107e+00	8.066861e-01	7.589838e-01	7.701285e-01	7.795594e-01	7.890619e-01	8.010643e-01	8.115375e-01	8.225181e-01	8.356800e-01	8.445362e-01	8.529723e-01	8.618249e-01	8.703733e-01	8.798417e-01	8.867702e-01	8.944511e-01	9.028835e-01	9.129856e-01	9.260715e-01	9.326954e-01	9.378951e-01	9.426112e-01	9.442927e-01	9.479646e-01	9.347693e-01	9.124939e-01	8.966458e-01	8.764217e-01	8.574586e-01	8.377528e-01	8.171777e-01	8.023638e-01	7.886917e-01	7.766714e-01	7.702895e-01	7.666075e-01	7.631646e-01	7.613292e-01	7.593399e-01	7.567977e-01	7.534656e-01	7.474562e-01	7.410248e-01	7.334190e-01	7.249053e-01	7.173928e-01	7.087803e-01	7.006949e-01	6.924996e-01	6.840310e-01	6.762330e-01	6.680332e-01	6.599138e-01	6.512349e-01	6.419369e-01	6.322747e-01	6.213013e-01	6.084279e-01	5.937339e-01	5.716529e-01	5.406638e-01	4.748950e-01	5.703661e-01	5.549801e-01	5.553118e-01	5.549893e-01	5.541024e-01	5.516123e-01	5.501782e-01	5.475857e-01	5.453438e-01	5.430863e-01	5.401707e-01	5.379222e-01	5.336620e-01	5.309255e-01	5.261983e-01	5.210958e-01	5.201426e-01	5.171310e-01	5.184906e-01	5.183636e-01	5.201916e-01	5.322768e-01	5.445695e-01	5.600047e-01	5.782417e-01	5.967996e-01	6.181906e-01	6.392619e-01	6.618926e-01	6.853645e-01	7.063669e-01	7.322829e-01	7.571914e-01	7.785669e-01	8.043857e-01	8.249483e-01	8.507580e-01	8.718289e-01	8.776345e-01	8.874578e-01	8.936925e-01	8.974234e-01	9.011053e-01	8.986227e-01	8.999597e-01	9.025753e-01	9.077471e-01	9.131435e-01	9.152555e-01	9.205833e-01	9.246404e-01	9.306782e-01	9.313179e-01	9.224828e-01	9.158444e-01	9.055587e-01	8.944805e-01	8.836468e-01	8.690236e-01	8.583404e-01	8.509151e-01	8.451415e-01	8.433014e-01	8.481564e-01	8.564455e-01	8.633936e-01	8.799386e-01	8.916778e-01	8.930031e-01	8.968449e-01	8.849037e-01	8.658129e-01	8.467464e-01	8.095671e-01	7.789421e-01	7.514269e-01	7.175460e-01	6.897869e-01	6.660417e-01	6.422767e-01	6.221535e-01	6.081808e-01	5.948998e-01	5.831052e-01	5.733148e-01	5.638043e-01	5.556033e-01	5.469120e-01	5.373882e-01	5.268664e-01	5.156861e-01	4.985644e-01	4.683220e-01	4.282976e-01	3.668268e-01	2.735424e-01	1.718949e-01	2.182274e-02	
SCALARS Pressure_Coefficient double 1
LOOKUP_TABLE default