# vtk DataFile Version 3.0
vtk output
ASCII
DATASET UNSTRUCTURED_GRID
POINTS 1845 double
1.000000e+02	0.000000e+00	0.0	9.917900e+01	1.278772e+01	0.0	9.672949e+01	2.536546e+01	0.0	9.269168e+01	3.752670e+01	0.0	8.713187e+01	4.907176e+01	0.0	8.014136e+01	5.981105e+01	0.0	7.183494e+01	6.956826e+01	0.0	6.234898e+01	7.818315e+01	0.0	5.183926e+01	8.551428e+01	0.0	4.047833e+01	9.144126e+01	0.0	2.845276e+01	9.586679e+01	0.0	1.595999e+01	9.871818e+01	0.0	3.205158e+00	9.994862e+01	0.0	-9.602303e+00	9.953791e+01	0.0	-2.225209e+01	9.749279e+01	0.0	-3.453651e+01	9.384684e+01	0.0	-4.625383e+01	8.865993e+01	0.0	-5.721167e+01	8.201723e+01	0.0	-6.723009e+01	7.402780e+01	0.0	-7.614460e+01	6.482284e+01	0.0	-8.380881e+01	5.455349e+01	0.0	-9.009689e+01	4.338837e+01	0.0	-9.490557e+01	3.151082e+01	0.0	-9.815592e+01	1.911586e+01	0.0	-9.979454e+01	6.407022e+00	0.0	-9.979454e+01	-6.407022e+00	0.0	-9.815592e+01	-1.911586e+01	0.0	-9.490557e+01	-3.151082e+01	0.0	-9.009689e+01	-4.338837e+01	0.0	-8.380881e+01	-5.455349e+01	0.0	-7.614460e+01	-6.482284e+01	0.0	-6.723009e+01	-7.402780e+01	0.0	-5.721167e+01	-8.201723e+01	0.0	-4.625383e+01	-8.865993e+01	0.0	-3.453651e+01	-9.384684e+01	0.0	-2.225209e+01	-9.749279e+01	0.0	-9.602303e+00	-9.953791e+01	0.0	3.205158e+00	-9.994862e+01	0.0	1.595999e+01	-9.871818e+01	0.0	2.845276e+01	-9.586679e+01	0.0	4.047833e+01	-9.144126e+01	0.0	5.183926e+01	-8.551428e+01	0.0	6.234898e+01	-7.818315e+01	0.0	7.183494e+01	-6.956826e+01	0.0	8.014136e+01	-5.981105e+01	0.0	8.713187e+01	-4.907176e+01	0.0	9.269168e+01	-3.752670e+01	0.0	9.672949e+01	-2.536546e+01	0.0	9.917900e+01	-1.278772e+01	0.0	0.000000e+00	0.000000e+00	0.0	3.327828e-03	3.731697e-03	0.0	6.909815e-03	7.449286e-03	0.0	1.144272e-02	1.034182e-02	0.0	1.622947e-02	1.317409e-02	0.0	2.151230e-02	1.550387e-02	0.0	2.702388e-02	1.781401e-02	0.0	3.285493e-02	1.988888e-02	0.0	3.892602e-02	2.191759e-02	0.0	4.529140e-02	2.374540e-02	0.0	5.193878e-02	2.534963e-02	0.0	5.888972e-02	2.665663e-02	0.0	6.614780e-02	2.734633e-02	0.0	7.367379e-02	2.773140e-02	0.0	8.143570e-02	2.727012e-02	0.0	8.944113e-02	2.686222e-02	0.0	9.769410e-02	2.653532e-02	0.0	1.061723e-01	2.699162e-02	0.0	1.148890e-01	2.778042e-02	0.0	1.236648e-01	2.970082e-02	0.0	1.326354e-01	3.196158e-02	0.0	1.417769e-01	3.454085e-02	0.0	1.510968e-01	3.741168e-02	0.0	1.606587e-01	4.034517e-02	0.0	1.706022e-01	4.283686e-02	0.0	1.807857e-01	4.538868e-02	0.0	1.913175e-01	4.738207e-02	0.0	2.022386e-01	4.857143e-02	0.0	2.133971e-01	4.978663e-02	0.0	2.248381e-01	4.956936e-02	0.0	2.365171e-01	4.909137e-02	0.0	2.484041e-01	4.838137e-02	0.0	2.604695e-01	4.712085e-02	0.0	2.727450e-01	4.583839e-02	0.0	2.852395e-01	4.470813e-02	0.0	2.979344e-01	4.362287e-02	0.0	3.108241e-01	4.271738e-02	0.0	3.239282e-01	4.261864e-02	0.0	3.371989e-01	4.251865e-02	0.0	3.506133e-01	4.295671e-02	0.0	3.641661e-01	4.366379e-02	0.0	3.778481e-01	4.442438e-02	0.0	3.916341e-01	4.544120e-02	0.0	4.055268e-01	4.646588e-02	0.0	4.195208e-01	4.738089e-02	0.0	4.335986e-01	4.823802e-02	0.0	4.477442e-01	4.905780e-02	0.0	4.619533e-01	4.964511e-02	0.0	4.761992e-01	5.023395e-02	0.0	4.904676e-01	5.081446e-02	0.0	5.047437e-01	5.139043e-02	0.0	5.190103e-01	5.200878e-02	0.0	5.332438e-01	5.284509e-02	0.0	5.474405e-01	5.367924e-02	0.0	5.615709e-01	5.472300e-02	0.0	5.756282e-01	5.586861e-02	0.0	5.896089e-01	5.696685e-02	0.0	6.035119e-01	5.784031e-02	0.0	6.173082e-01	5.870707e-02	0.0	6.310019e-01	5.894431e-02	0.0	6.445726e-01	5.883848e-02	0.0	6.579856e-01	5.853436e-02	0.0	6.711496e-01	5.685232e-02	0.0	6.841484e-01	5.519139e-02	0.0	6.968432e-01	5.283255e-02	0.0	7.092604e-01	4.997717e-02	0.0	7.214872e-01	4.716557e-02	0.0	7.334061e-01	4.396102e-02	0.0	7.451194e-01	4.080474e-02	0.0	7.566605e-01	3.785685e-02	0.0	7.680372e-01	3.517352e-02	0.0	7.791902e-01	3.254294e-02	0.0	7.902828e-01	3.083554e-02	0.0	8.011452e-01	2.919444e-02	0.0	8.118193e-01	2.801395e-02	0.0	8.222752e-01	2.707110e-02	0.0	8.324902e-01	2.621656e-02	0.0	8.424642e-01	2.546730e-02	0.0	8.521838e-01	2.468192e-02	0.0	8.616319e-01	2.367565e-02	0.0	8.708310e-01	2.269591e-02	0.0	8.797505e-01	2.149187e-02	0.0	8.884166e-01	2.026646e-02	0.0	8.968277e-01	1.900945e-02	0.0	9.049773e-01	1.766683e-02	0.0	9.128868e-01	1.636374e-02	0.0	9.205462e-01	1.502484e-02	0.0	9.279690e-01	1.371229e-02	0.0	9.351587e-01	1.242733e-02	0.0	9.421170e-01	1.116038e-02	0.0	9.488519e-01	9.933537e-03	0.0	9.553619e-01	8.717496e-03	0.0	9.616567e-01	7.541646e-03	0.0	9.677364e-01	6.382420e-03	0.0	9.736090e-01	5.258598e-03	0.0	9.792755e-01	4.150902e-03	0.0	9.847433e-01	3.073047e-03	0.0	9.900159e-01	2.017350e-03	0.0	9.950976e-01	9.818531e-04	0.0	1.000000e+00	0.000000e+00	0.0	9.950044e-01	2.101939e-04	0.0	9.898202e-01	4.011184e-04	0.0	9.844417e-01	5.435769e-04	0.0	9.788644e-01	6.429183e-04	0.0	9.730842e-01	7.185875e-04	0.0	9.670960e-01	7.377689e-04	0.0	9.608956e-01	7.342940e-04	0.0	9.544786e-01	6.659505e-04	0.0	9.478406e-01	5.814314e-04	0.0	9.409786e-01	4.012755e-04	0.0	9.338870e-01	2.150891e-04	0.0	9.265653e-01	-7.894890e-05	0.0	9.190072e-01	-4.057703e-04	0.0	9.112118e-01	-8.022966e-04	0.0	9.031782e-01	-1.311236e-03	0.0	8.948985e-01	-1.835767e-03	0.0	8.863848e-01	-2.566729e-03	0.0	8.776230e-01	-3.344327e-03	0.0	8.686224e-01	-4.266435e-03	0.0	8.593870e-01	-5.382050e-03	0.0	8.499022e-01	-6.550034e-03	0.0	8.402193e-01	-8.132448e-03	0.0	8.302856e-01	-9.755839e-03	0.0	8.201847e-01	-1.185077e-02	0.0	8.098610e-01	-1.411966e-02	0.0	7.993751e-01	-1.676537e-02	0.0	7.887289e-01	-1.978417e-02	0.0	7.778780e-01	-2.296185e-02	0.0	7.669563e-01	-2.671257e-02	0.0	7.558133e-01	-3.053928e-02	0.0	7.444950e-01	-3.455567e-02	0.0	7.329895e-01	-3.870965e-02	0.0	7.212775e-01	-4.292497e-02	0.0	7.092499e-01	-4.686054e-02	0.0	6.970329e-01	-5.085805e-02	0.0	6.845303e-01	-5.454985e-02	0.0	6.716973e-01	-5.774497e-02	0.0	6.586992e-01	-6.098115e-02	0.0	6.453514e-01	-6.328893e-02	0.0	6.318149e-01	-6.540624e-02	0.0	6.181140e-01	-6.729845e-02	0.0	6.042175e-01	-6.861474e-02	0.0	5.902123e-01	-6.994134e-02	0.0	5.760856e-01	-7.094936e-02	0.0	5.618711e-01	-7.188132e-02	0.0	5.475881e-01	-7.279563e-02	0.0	5.332497e-01	-7.366659e-02	0.0	5.188737e-01	-7.453983e-02	0.0	5.044645e-01	-7.521166e-02	0.0	4.900457e-01	-7.584752e-02	0.0	4.756293e-01	-7.626009e-02	0.0	4.612268e-01	-7.630830e-02	0.0	4.468621e-01	-7.635639e-02	0.0	4.325740e-01	-7.556599e-02	0.0	4.183553e-01	-7.470019e-02	0.0	4.042458e-01	-7.351944e-02	0.0	3.902668e-01	-7.194020e-02	0.0	3.763963e-01	-7.037322e-02	0.0	3.626484e-01	-6.881267e-02	0.0	3.490347e-01	-6.726696e-02	0.0	3.355389e-01	-6.607204e-02	0.0	3.221663e-01	-6.530013e-02	0.0	3.089635e-01	-6.453802e-02	0.0	2.959263e-01	-6.489100e-02	0.0	2.830783e-01	-6.529688e-02	0.0	2.704382e-01	-6.587811e-02	0.0	2.580161e-01	-6.667553e-02	0.0	2.458089e-01	-6.745916e-02	0.0	2.338016e-01	-6.767243e-02	0.0	2.220210e-01	-6.783618e-02	0.0	2.105087e-01	-6.736792e-02	0.0	1.992855e-01	-6.597874e-02	0.0	1.883034e-01	-6.461943e-02	0.0	1.778016e-01	-6.206890e-02	0.0	1.675812e-01	-5.937268e-02	0.0	1.576516e-01	-5.658167e-02	0.0	1.481117e-01	-5.337188e-02	0.0	1.388126e-01	-5.024310e-02	0.0	1.297390e-01	-4.724284e-02	0.0	1.208960e-01	-4.435524e-02	0.0	1.122941e-01	-4.154640e-02	0.0	1.037817e-01	-3.933258e-02	0.0	9.550616e-02	-3.720252e-02	0.0	8.743482e-02	-3.529280e-02	0.0	7.955611e-02	-3.364249e-02	0.0	7.191574e-02	-3.204368e-02	0.0	6.450269e-02	-3.053444e-02	0.0	5.732222e-02	-2.907256e-02	0.0	5.043283e-02	-2.738632e-02	0.0	4.378143e-02	-2.568993e-02	0.0	3.746084e-02	-2.367042e-02	0.0	3.138116e-02	-2.161621e-02	0.0	2.568014e-02	-1.917995e-02	0.0	2.023674e-02	-1.669259e-02	0.0	1.511555e-02	-1.401098e-02	0.0	1.035201e-02	-1.111735e-02	0.0	5.964343e-03	-8.028941e-03	0.0	2.156516e-03	-4.505749e-03	0.0	1.613695e-01	4.676231e-02	0.0	1.661250e-01	5.334372e-02	0.0	8.414791e+01	2.953889e+01	0.0	8.113707e+01	2.051206e+01	0.0	8.893096e+01	1.815910e+01	0.0	7.552492e+01	-1.231406e+01	0.0	7.549845e+01	-2.472120e+01	0.0	8.699840e+01	-1.780676e+01	0.0	8.662512e+01	-4.329717e+00	0.0	3.420003e+01	2.156419e+01	0.0	4.482264e+01	2.903541e+01	0.0	3.644080e+01	3.656584e+01	0.0	7.334636e+01	2.540683e+01	0.0	6.835516e+01	-3.531661e+01	0.0	7.528646e+01	-4.381071e+01	0.0	8.102598e+01	-3.634146e+01	0.0	8.658880e+01	-2.835231e+01	0.0	5.282564e+01	3.339578e+01	0.0	5.529309e+01	4.156533e+01	0.0	4.678152e+01	3.804629e+01	0.0	5.537088e+01	-5.298483e+01	0.0	6.171567e+01	-5.964650e+01	0.0	6.531499e+01	-5.433712e+01	0.0	6.906186e+01	5.986131e+01	0.0	7.385228e+01	4.895890e+01	0.0	6.047291e+01	6.583652e+01	0.0	4.750780e+01	-6.329505e+01	0.0	4.466907e+01	-7.328172e+01	0.0	5.416664e+01	-7.184759e+01	0.0	6.586124e+01	-4.633122e+01	0.0	4.926598e+01	7.205635e+01	0.0	3.438747e+01	5.557009e+01	0.0	3.044833e+01	6.366663e+01	0.0	2.552397e+01	5.445859e+01	0.0	5.627443e+01	-6.302751e+01	0.0	2.681566e+01	8.462472e+01	0.0	2.649309e+01	7.372851e+01	0.0	3.458105e+01	8.033221e+01	0.0	3.397485e+01	-6.534586e+01	0.0	2.578127e+01	-7.644916e+01	0.0	3.772981e+01	-7.977533e+01	0.0	6.376331e+00	4.767465e+01	0.0	-4.621446e+00	4.499994e+01	0.0	2.582189e+00	3.868538e+01	0.0	1.867343e+01	8.955800e+01	0.0	1.376344e+01	7.814648e+01	0.0	3.481301e-02	-9.891061e-02	0.0	5.171433e-03	-1.103967e-01	0.0	3.729005e-02	-1.349961e-01	0.0	1.762673e-01	5.273085e-02	0.0	3.861324e-01	5.566323e-02	0.0	3.730502e-01	5.562781e-02	0.0	2.420079e-01	-7.894626e-02	0.0	2.292811e-01	-7.662369e-02	0.0	2.151722e-01	-3.029987e-01	0.0	2.918211e-01	-2.649724e-01	0.0	2.447762e-01	-2.169018e-01	0.0	2.747254e-01	-7.492614e-02	0.0	2.644207e-01	-7.227548e-02	0.0	2.641384e-01	-7.930564e-02	0.0	9.167114e-01	-1.341634e-02	0.0	9.070210e-01	-1.397545e-02	0.0	9.111547e-01	-2.260958e-02	0.0	3.327303e-02	-2.845740e-02	0.0	3.501294e-02	-3.383041e-02	0.0	3.912022e-02	-2.974809e-02	0.0	4.821931e-02	-3.955974e-02	0.0	5.621754e-02	-4.045167e-02	0.0	5.319361e-02	-3.411775e-02	0.0	5.074108e-02	-6.712579e-02	0.0	5.378770e-02	-8.386107e-02	0.0	6.559082e-02	-6.881335e-02	0.0	4.740777e-02	-3.358084e-02	0.0	8.647820e-01	-1.766067e-02	0.0	8.729399e-01	-1.154331e-02	0.0	8.645623e-01	-1.029814e-02	0.0	7.766378e-01	-3.071705e-02	0.0	7.709522
[...]
POINT_DATA 1845

SCALARS Density double 1
LOOKUP_TABLE default
1.291804e+00	1.291832e+00	1.292084e+00	1.292201e+00	1.292166e+00	1.292109e+00	1.292079e+00	1.292047e+00	1.292004e+00	1.291967e+00	1.291938e+00	1.291922e+00	1.291928e+00	1.291963e+00	1.292021e+00	1.292080e+00	1.292133e+00	1.292173e+00	1.292206e+00	1.292228e+00	1.292246e+00	1.292259e+00	1.292268e+00	1.292276e+00	1.292283e+00	1.292290e+00	1.292298e+00	1.292307e+00	1.292318e+00	1.292333e+00	1.292351e+00	1.292375e+00	1.292408e+00	1.292444e+00	1.292489e+00	1.292543e+00	1.292595e+00	1.292634e+00	1.292641e+00	1.292624e+00	1.292588e+00	1.292542e+00	1.292495e+00	1.292444e+00	1.292395e+00	1.292364e+00	1.292368e+00	1.292293e+00	1.292048e+00	1.481575e+00	1.157285e+00	1.137062e+00	1.054026e+00	1.022568e+00	9.926932e-01	9.895451e-01	9.726512e-01	9.459619e-01	8.956916e-01	8.420302e-01	7.399523e-01	6.589834e-01	6.335815e-01	7.808802e-01	1.114771e+00	1.229488e+00	1.245713e+00	1.246700e+00	1.241728e+00	1.212682e+00	1.186003e+00	1.149707e+00	1.082626e+00	1.027761e+00	9.669071e-01	8.706820e-01	8.170928e-01	7.354774e-01	6.512812e-01	6.283627e-01	6.000823e-01	5.788852e-01	6.028022e-01	7.526624e-01	1.062325e+00	1.160918e+00	1.162434e+00	1.159140e+00	1.162447e+00	1.151179e+00	1.143038e+00	1.133171e+00	1.117628e+00	1.107939e+00	1.102483e+00	1.095386e+00	1.093668e+00	1.097694e+00	1.097877e+00	1.098296e+00	1.099613e+00	1.094735e+00	1.084841e+00	1.073239e+00	1.047506e+00	1.014056e+00	9.827492e-01	9.348440e-01	8.823131e-01	8.444767e-01	7.585749e-01	7.016091e-01	7.247161e-01	8.596358e-01	1.031941e+00	1.086746e+00	1.119716e+00	1.154799e+00	1.177458e+00	1.190696e+00	1.208556e+00	1.214356e+00	1.210043e+00	1.212629e+00	1.205276e+00	1.199362e+00	1.194392e+00	1.186433e+00	1.186923e+00	1.187330e+00	1.188891e+00	1.196184e+00	1.199397e+00	1.205391e+00	1.211501e+00	1.216462e+00	1.222717e+00	1.227238e+00	1.232343e+00	1.236625e+00	1.241196e+00	1.245594e+00	1.249993e+00	1.254647e+00	1.258578e+00	1.263993e+00	1.273387e+00	1.246974e+00	1.306067e+00	1.417376e+00	1.403661e+00	1.399093e+00	1.401655e+00	1.404846e+00	1.407330e+00	1.409517e+00	1.412670e+00	1.414343e+00	1.416629e+00	1.419063e+00	1.419918e+00	1.423923e+00	1.424148e+00	1.428463e+00	1.430961e+00	1.431123e+00	1.435579e+00	1.434453e+00	1.440698e+00	1.440408e+00	1.441690e+00	1.442697e+00	1.437668e+00	1.436837e+00	1.425402e+00	1.420859e+00	1.407172e+00	1.383137e+00	1.364838e+00	1.336760e+00	1.299258e+00	1.267720e+00	1.228737e+00	1.177346e+00	1.144190e+00	1.068747e+00	1.016189e+00	1.009342e+00	9.962243e-01	1.017141e+00	1.042898e+00	1.062787e+00	1.089372e+00	1.102848e+00	1.105852e+00	1.096388e+00	1.085618e+00	1.066288e+00	1.039024e+00	1.024760e+00	1.009417e+00	1.030726e+00	1.073505e+00	1.100823e+00	1.148711e+00	1.193405e+00	1.225799e+00	1.263029e+00	1.293043e+00	1.300561e+00	1.325442e+00	1.328659e+00	1.299595e+00	1.283598e+00	1.254858e+00	1.199387e+00	1.151117e+00	1.046743e+00	9.452756e-01	9.517867e-01	9.707813e-01	1.036617e+00	1.136935e+00	1.178255e+00	1.232688e+00	1.292877e+00	1.327490e+00	1.354008e+00	1.390875e+00	1.408032e+00	1.409112e+00	1.420055e+00	1.418845e+00	1.416003e+00	1.415842e+00	1.405244e+00	1.404362e+00	1.405273e+00	1.413550e+00	1.425801e+00	1.448694e+00	1.479286e+00	1.506243e+00	1.536921e+00	1.576567e+00	1.599292e+00	1.674330e+00	1.094400e+00	1.086213e+00	1.292145e+00	1.292077e+00	1.292016e+00	1.292168e+00	1.292311e+00	1.292207e+00	1.291986e+00	1.292012e+00	1.292035e+00	1.291935e+00	1.292105e+00	1.292375e+00	1.292368e+00	1.292343e+00	1.292312e+00	1.292074e+00	1.292053e+00	1.292014e+00	1.292462e+00	1.292453e+00	1.292425e+00	1.292077e+00	1.292107e+00	1.292044e+00	1.292528e+00	1.292557e+00	1.292512e+00	1.292399e+00	1.291998e+00	1.291901e+00	1.291885e+00	1.291825e+00	1.292484e+00	1.291910e+00	1.291881e+00	1.291931e+00	1.292610e+00	1.292653e+00	1.292597e+00	1.291570e+00	1.291561e+00	1.291374e+00	1.291900e+00	1.291848e+00	1.419956e+00	1.427259e+00	1.396747e+00	1.022248e+00	1.145419e+00	1.155009e+00	1.150929e+00	1.034878e+00	1.271984e+00	1.246676e+00	1.244206e+00	1.263783e+00	1.235614e+00	1.238248e+00	1.420027e+00	1.422901e+00	1.419015e+00	1.451271e+00	1.449932e+00	1.433462e+00	1.426354e+00	1.418882e+00	1.415243e+00	1.424059e+00	1.413612e+00	1.411225e+00	1.421827e+00	1.431867e+00	1.432286e+00	1.435083e+00	1.397372e+00	1.382303e+00	1.340941e+00	1.318888e+00	1.256249e+00	1.285423e+00	1.399788e+00	1.390317e+00	1.382201e+00	1.161441e+00	1.105063e+00	1.108318e+00	1.107239e+00	1.162166e+00	1.160868e+00	1.143841e+00	1.148478e+00	1.413498e+00	1.414078e+00	1.188697e+00	1.189594e+00	1.173661e+00	1.131527e+00	1.141713e+00	1.139684e+00	1.109756e+00	1.173248e+00	1.168241e+00	1.105485e+00	1.105582e+00	1.135935e+00	1.144778e+00	1.138568e+00	1.063542e+00	1.073558e+00	9.741187e-01	1.008960e+00	7.772467e-01	8.298837e-01	1.406906e+00	1.404255e+00	1.405222e+00	1.416031e+00	1.401604e+00	1.229073e+00	1.223660e+00	1.231273e+00	1.200722e+00	1.210065e+00	1.211172e+00	1.201230e+00	1.196546e+00	1.282608e+00	1.277243e+00	1.279079e+00	1.206100e+00	1.204986e+00	1.227035e+00	1.220442e+00	1.215828e+00	1.282858e+00	1.280081e+00	1.299707e+00	1.219659e+00	1.213596e+00	1.201093e+00	1.203717e+00	1.214130e+00	1.215176e+00	1.219014e+00	1.223194e+00	1.226063e+00	1.233716e+00	1.240873e+00	1.216454e+00	1.199681e+00	1.179583e+00	1.195136e+00	1.263793e+00	1.275061e+00	1.264116e+00	1.226460e+00	1.227763e+00	1.015901e+00	1.067794e+00	1.043358e+00	1.234742e+00	1.230605e+00	1.208018e+00	1.245030e+00	1.235886e+00	1.237885e+00	1.417650e+00	1.420453e+00	1.314440e+00	1.312002e+00	1.119555e+00	1.067130e+00	1.054593e+00	1.264327e+00	1.275971e+00	1.280531e+00	1.271623e+00	1.253486e+00	1.229862e+00	1.293439e+00	1.306982e+00	1.286504e+00	1.288081e+00	1.288788e+00	1.291539e+00	1.291765e+00	1.291694e+00	1.288754e+00	1.284994e+00	1.285895e+00	1.334448e+00	1.321706e+00	1.322171e+00	1.315259e+00	1.318344e+00	1.310063e+00	1.265941e+00	1.273367e+00	1.297731e+00	1.307153e+00	1.275282e+00	1.273507e+00	1.295283e+00	1.300929e+00	1.292823e+00	1.263774e+00	1.288190e+00	1.283695e+00	1.280565e+00	1.276120e+00	1.261458e+00	1.261507e+00	1.255533e+00	1.270716e+00	1.283157e+00	1.287193e+00	1.275617e+00	1.268169e+00	1.250530e+00	1.250374e+00	1.263010e+00	1.242262e+00	1.251924e+00	1.155704e+00	1.167892e+00	1.089073e+00	1.118372e+00	1.148567e+00	1.125321e+00	1.268795e+00	1.262757e+00	1.250337e+00	1.042217e+00	1.035696e+00	7.334723e-01	1.114449e+00	1.139186e+00	1.158746e+00	8.136724e-01	1.161173e+00	1.165317e+00	1.162859e+00	1.284342e+00	1.290597e+00	1.283716e+00	1.292006e+00	1.291944e+00	1.137414e+00	1.111338e+00	9.944497e-01	1.423258e+00	1.425330e+00	1.477038e+00	1.415909e+00	1.416228e+00	1.468189e+00	1.411851e+00	1.415979e+00	1.505731e+00	1.393663e+00	1.402230e+00	1.405227e+00	1.527600e+00	1.502896e+00	1.300839e+00	1.308218e+00	1.303246e+00	1.373312e+00	1.390786e+00	1.425705e+00	1.432460e+00	1.226018e+00	1.265304e+00	1.279888e+00	1.294163e+00	1.252278e+00	1.425206e+00	1.415312e+00	1.418769e+00	1.400600e+00	1.379757e+00	1.395525e+00	1.337362e+00	1.339674e+00	1.308559e+00	1.424668e+00	1.431829e+00	1.425589e+00	1.436544e+00	1.437008e+00	1.225001e+00	1.215113e+00	1.190824e+00	1.429057e+00	1.428637e+00	1.427737e+00	1.428594e+00	1.425630e+00	1.126338e+00	1.077947e+00	1.087997e+00	1.431684e+00	1.407412e+00	1.412780e+00	1.032412e+00	1.075061e+00	1.050880e+00	1.406019e+00	1.409012e+00	1.410802e+00	1.077642e+00	1.061034e+00	1.082936e+00	1.095619e+00	1.103916e+00	1.113025e+00	1.085360e+00	1.066440e+00	1.130892e+00	1.143971e+00	1.128976e+00	1.101713e+00	1.107998e+00	1.273459e+00	1.267340e+00	1.287718e+00	1.120883e+00	1.108286e+00	1.117347e+00	1.065464e+00	1.083157e+00	1.111386e+00	1.098492e+00	1.130235e+00	1.292662e+00	1.292627e+00	1.305627e+00	1.310041e+00	1.035629e+00	1.072214e+00	1.057989e+00	1.056784e+00	1.080155e+00	1.105543e+00	1.182183e+00	1.138865e+00	1.164095e+00	1.178681e+00	1.166276e+00	1.148156e+00	1.211286e+00	1.239106e+00	1.134254e+00	1.162371e+00	1.359165e+00	1.357211e+00	1.374765e+00	1.292667e+00	1.292642e+00	1.292611e+00	1.301124e+00	1.301939e+00	1.298127e+00	1.216549e+00	1.255220e+00	1.293982e+00	1.293432e+00	1.293527e+00	1.292565e+00	1.292485e+00	1.292518e+00	1.213417e+00	1.176211e+00	1.292744e+00	1.292689e+00	1.292716e+00	1.498437e+00	1.542489e+00	1.519556e+00	1.229339e+00	1.159971e+00	1.137898e+00	1.292580e+00	1.292853e+00	1.292823e+00	1.292934e+00	1.293756e+00	1.293995e+00	1.293182e+00	1.292466e+00	1.292425e+00	1.295888e+00	1.294511e+00	1.296011e+00	1.293455e+00	1.293328e+00	1.294308e+00	1.292436e+00	1.292688e+00	1.292728e+00	1.292537e+00	1.292421e+00	1.292396e+00	1.292370e+00	1.292482e+00	1.292309e+00	1.292422e+00	1.292365e+00	1.292333e+00	1.292342e+00	1.292323e+00	1.292312e+00	1.292291e+00	1.292283e+00	1.292258e+00	1.292272e+00	1.292272e+00	1.292236e+00	1.292203e+00	1.292219e+00	1.251428e+00	1.291493e+00	1.226997e+00	1.286819e+00	1.289858e+00	1.290751e+00	1.291977e+00	1.292054e+00	1.292066e+00	1.291920e+00	1.292084e+00	1.291754e+00	1.292203e+00	1.292159e+00	1.292140e+00	1.292067e+00	1.292104e+00	7.100403e-01	8.049320e-01	7.002099e-01	7.015051e-01	1.134897e+00	1.112253e+00	1.221673e+00	1.292038e+00	1.214028e+00	1.240356e+00	1.230348e+00	1.139901e+00	1.100954e+00	8.530474e-01	1.210469e+00	1.165261e+00	1.178102e+00	1.255291e+00	1.291940e+00	1.292027e+00	7.697316e-01	6.261561e-01	5.864510e-01	1.250584e+00	1.289746e+00	1.290335e+00	1.234768e+00	1.252757e+00	8.762697e-01	9.309123e-01	1.244848e+00	1.225718e+00	1.111678e+00	1.135289e+00	1.271932e+00	1.255753e+00	1.040880e+00	9.993584e-01	9.500000e-01	1.102971e+00	1.132077e+00	1.072975e+00	1.292288e+00	1.292288e+00	7.764749e-01	1.011867e+00	1.292136e+00	1.292138e+00	1.254471e+00	1.274673e+00	1.281408e+00	1.403229e+00	1.406202e+00	1.292359e+00	1.292345e+00	1.292574e+00	1.292684e+00	1.292186e+00	1.292601e+00	1.292646e+00	1.293022e+00	1.293074e+00	1.291938e+00	1.291970e+00	1.291893e+00	1.291944e+00	1.291878e+00	1.291987e+00	1.292428e+00	1.292389e+00	1.292044e+00	1.291964e+00	1.292011e+00	1.293028e+00	1.293102e+00	1.292740e+00	1.292728e+00	1.292207e+00	1.292247e+00	1.292262e+00	1.291983e+00	1.291949e+00	1.290572e+00	1.291141e+00	1.290557e+00	1.289427e+00	1.290350e+00	1.293174e+00	1.293095e+00	1.292651e+00	1.292306e+00	1.292552e+00	1.292460e+00	1.292561e+00	1.292480e+00	1.292525e+00	1.292309e+00	1.292310e+00	1.292277e+00	1.292268e+00	1.292182e+00	1.292218e+00	1.291911e+00	1.291877e+00	1.291958e+00	1.292814e+00	1.292794e+00	1.292132e+00	1.292163e+00	1.292090e+00	1.292053e+00	1.291971e+00	1.291869e+00	1.291982e+00	1.292277e+00	1.292353e+00	1.292548e+00	1.292634e+00	1.292433e+00	1.292504e+00	1.292414e+00	1.292113e+00	1.292340e+00	1.292220e+00	1.316414e+00	1.308748e+00	1.278981e+00	1.239258e+00	1.173288e+00	1.199608e+00	1.291833e+00	1.292835e+00	1.292887e+00	1.291769e+00	1.291996e+00	1.291790e+00	1.291860e+00	1.291734e+00	1.292308e+00	1.292349e+00	1.292375e+00	1.291844e+00	1.302339e+00	1.298257e+00	1.293380e+00	1.293057e+00	1.292770e+00	1.291714e+00	1.292754e+00	1.293616e+00	1.294301e+00	1.290988e+00	1.291227e+00	1.170658e+00	1.179849e+00	1.292160e+00	1.292121e+00	1.292148e+00	1.292304e+00	1.292295e+00	1.292398e+00	1.291860e+00	1.291871e+00	1.292252e+00	1.292239e+00	1.292207e+00	1.292344e+00	1.292164e+00	1.292661e+00	1.292757e+00	1.292766e+00	1.292557e+00	1.292544e+00	1.292628e+00	1.292603e+00	1.292095e+00	1.291977e+00	1.292035e+00	1.292379e+00	1.292411e+00	1.292469e+00	1.292496e+00	1.292720e+00	1.292715e+00	1.292611e+00	1.292150e+00	1.292466e+00	1.291710e+00	1.292006e+00	1.292126e+00	1.291992e+00	1.292543e+00	1.292027e+00	1.291410e+00	1.291091e+00	1.291741e+00	1.291671e+00	1.292922e+00	1.293241e+00	1.292436e+00	1.291913e+00	1.291869e+00	1.292006e+00	1.292389e+00	1.291505e+00	1.292041e+00	1.291584e+00	1.292033e+00	1.291968e+00	1.292687e+00	1.292713e+00	1.292005e+00	1.291953e+00	1.291807e+00	1.292337e+00	1.292317e+00	1.292111e+00	1.292875e+00	1.292393e+00	1.291775e+00	1.291805e+00	1.292459e+00	1.292218e+00	1.292180e+00	1.395588e+00	1.399310e+00	1.396872e+00	1.622993e+00	1.591536e+00	1.292279e+00	1.291813e+00	1.292644e+00	1.291908e+00	1.291791e+00	1.291830e+00	1.291309e+00	1.294699e+00	1.294262e+00	1.295443e+00	1.293554e+00	1.293915e+00	1.295369e+00	1.359887e+00	1.384892e+00	1.380559e+00	1.291511e+00	1.291552e+00	1.291704e+00	1.291055e+00	1.291151e+00	1.292342e+00	1.289704e+00	1.292920e+00	1.295495e+00	1.294383e+00	1.291147e+00	1.291138e+00	8.487001e-01	9.181950e-01	1.290414e+00	1.293432e+00	1.289774e+00	1.291246e+00	1.291423e+00	1.295033e+00	1.380754e+00	1.369427e+00	1.374900e+00	1.291743e+00	1.292965e+00	1.292504e+00	1.292401e+00	1.292541e+00	6.055273e-01	6.510960e-01	1.291286e+00	1.294783e+00	1.296807e+00	1.295262e+00	1.300059e+00	1.300976e+00	1.307952e+00	1.287706e+00	1.288041e+00	1.291614e+00	1.292499e+00	1.293976e+00	1.307045e+00	1.312835e+00	1.317428e+00	1.295241e+00	1.400095e+00	1.296287e+00	1.298219e+00	1.282800e+00	1.278512e+00	1.291333e+00	1.290890e+00	1.291861e+00	1.298121e+00	1.289569e+00	1.289058e+00	1.280594e+00	1.278581e+00	1.295004e+00	1.296516e+00	1.295772e+00	1.297062e+00	1.298686e+00	1.297796e+00	1.366252e+00	1.345848e+00	1.351095e+00	1.297546e+00	1.289211e+00	1.293231e+00	9.918558e-01	1.032710e+00	1.296328e+00	1.287350e+00	1.275522e+00	1.197654e+00	1.298438e+00	1.297180e+00	1.299006e+00	1.482398e+00	1.290415e+00	1.287529e+00	1.293623e+00	1.302853e+00	1.307960e+00	1.300552e+00	1.297644e+00	1.391833e+00	1.373580e+00	1.307030e+00	1.314626e+00	1.287893e+00	1.291434e+00	1.294453e+00	1.271715e+00	1.286842e+00	1.299385e+00	1.298325e+00	1.290777e+00	1.203022e+00	1.222781e+00	1.187212e+00	1.289951e+00	1.294437e+00	1.298010e+00	9.681163e-01	9.279086e-01	1.292242e+00	1.300080e+00	7.450479e-01	9.920926e-01	1.072224e+00	1.087976e+00	1.294652e+00	1.299848e+00	1.288335e+00	1.282471e+00	1.257830e+00	1.263844e+00	1.306730e+00	1.295479e+00	1.294561e+00	1.308581e+00	1.286658e+00	1.294568e+00	1.293742e+00	1.301113e+00	1.289099e+00	1.080756e+00	1.030870e+00	1.286503e+00	1.264112e+00	1.299919e+00	1.225847e+00	1.283888e+00	1.307102e+00	1.303902e+00	1.291497e+00	1.302527e+00	1.309954e+00	1.407909e+00	1.394757e+00	1.311208e+00	1.445947e+00	1.469568e+00	1.438286e+00	1.312815e+00	1.246028e+00	1.267651e+00	1.226983e+00	1.252912e+00	1.177162e+00	1.155221e+00	1.320276e+00	1.337488e+00	1.317481e+00	1.326144e+00	1.317645e+00	1.316272e+00	1.319327e+00	1.289143e+00	1.317238e+00	1.190676e+00	1.305739e+00	1.309733e+00	1.302913e+00	1.298336e+00	1.300403e+00	1.285656e+00	1.398521e+00	1.282507e+00	1.302576e+00	1.345425e+00	1.248445e+00	1.304984e+00	1.290417e+00	1.297477e+00	1.288148e+00	1.287540e+00	1.232692e+00	1.201719e+00	1.198525e+00	1.307139e+00	1.152107e+00	1.274184e+00	1.229375e+00	1.286734e+00	1.269506e+00	1.315291e+00	1.312374e+00	1.053509e+00	1.221395e+00	1.280237e+00	1.163674e+00	1.127475e+00	1.158724e+00	1.191718e+00	1.243327e+00	1.326710e+00	1.334851e+00	1.345731e+00	1.333287e+00	1.303432e+00	1.318539e+00	1.329948e+00	1.321556e+00	1.347101e+00	1.331433e+00	1.340127e+00	1.228343e+00	1.230100e+00	1.267104e+00	1.304050e+00	1.331483e+00	1.310408e+00	1.369602e+00	1.369961e+00	1.354783e+00	1.292598e+00	1.038610e+00	1.026667e+00	1.299495e+00	1.314944e+00	1.307092e+00	1.109239e+00	1.288879e+00	1.217996e+00	1.326641e+00	1.350582e+00	1.304878e+00	1.205856e+00	1.246458e+00	1.168214e+00	1.364649e+00	1.132317e+00	1.033298e+00	1.010887e+00	9.593169e-01	1.167575e+00	1.143563e+00	1.177841e+00	1.141063e+00	1.111137e+00	1.202626e+00	1.334914e+00	1.314698e+00	1.351389e+00	1.368152e+00	1.378647e+00	1.347233e+00	1.397584e+00	1.413999e+00	1.388698e+00	1.358491e+00	1.284874e+00	1.321268e+00	1.310774e+00	1.044787e+00	1.331473e+00	1.132158e+00	1.050456e+00	1.147779e+00	1.104522e+00	1.269161e+00	1.248776e+00	1.292041e+00	1.083258e+00	1.321999e+00	1.230805e+00	1.250557e+00	1.231042e+00	1.339980e+00	1.374538e+00	1.381053e+00	1.357311e+00	1.154995e+00	1.160081e+00	1.370568e+00	1.364680e+00	1.328633e+00	1.222808e+00	1.368698e+00	1.388489e+00	1.135246e+00	1.241539e+00	1.279045e+00	9.812093e-01	1.338168e+00	1.341017e+00	1.188336e+00	1.176704e+00	1.160261e+00	8.708959e-01	9.541874e-01	9.289295e-01	1.090467e+00	1.087307e+00	1.261100e+00	1.265034e+00	1.267489e+00	1.553691e+00	1.633984e+00	1.553350e+00	1.281947e+00	1.278737e+00	1.313289e+00	1.188419e+00	1.194108e+00	1.233460e+00	1.213524e+00	1.102415e+00	1.126167e+00	1.362745e+00	1.168206e+00	1.312779e+00	1.310454e+00	1.310320e+00	9.741247e-01	1.111143e+00	1.059179e+00	1.026319e+00	1.173248e+00	1.071590e+00	1.149803e+00	1.128733e+00	1.355847e+00	1.411581e+00	1.409476e+00	1.329801e+00	1.231982e+00	1.427896e+00	1.618566e+00	1.163124e+00	1.148594e+00	1.245216e+00	1.241334e+00	1.255741e+00	1.152863e+00	1.099562e+00	1.126366e+00	1.115068e+00	1.163691e+00	1.410560e+00	1.447451e+00	1.347251e+00	1.447708e+00	1.420747e+00	1.385535e+00	1.361232e+00	1.284872e+00	1.339763e+00	1.349732e+00	1.212011e+00	1.164243e+00	1.257472e+00	1.158355e+00	1.193945e+00	1.141079e+00	1.213478e+00	1.177976e+00	1.183252e+00	1.277496e+00	1.299054e+00	1.238040e+00	1.249666e+00	1.263395e+00	1.249017e+00	1.111483e+00	1.092949e+00	1.131344e+00	1.298852e+00	1.278970e+00	1.282358e+00	1.232184e+00	1.266399e+00	1.357116e+00	1.388336e+00	1.384915e+00	1.391944e+00	1.385460e+00	1.285590e+00	1.344857e+00	1.051572e+00	1.036614e+00	1.281187e+00	1.235862e+00	1.243939e+00	1.238990e+00	1.233628e+00	1.246851e+00	1.122916e+00	1.090202e+00	1.085477e+00	1.131764e+00	8.210327e-01	7.917133e-01	7.590976e-01	1.117993e+00	1.113907e+00	1.402610e+00	1.234551e+00	1.217214e+00	1.223876e+00	1.453606e+00	1.391307e+00	1.207929e+00	1.098387e+00	1.094613e+00	1.113760e+00	1.143582e+00	1.008280e+00	1.064920e+00	1.091607e+00	1.093775e+00	1.119004e+00	1.101156e+00	1.148540e+00	1.081871e+00	1.019814e+00	1.237521e+00	1.326026e+00	1.339389e+00	1.268185e+00	1.229747e+00	1.169662e+00	1.165168e+00	1.152011e+00	1.343658e+00	1.356929e+00	1.347147e+00	1.361436e+00	1.292616e+00	1.242996e+00	1.362513e+00	1.345540e+00	1.378193e+00	1.210372e+00	8.484186e-01	8.837299e-01	1.325358e+00	1.163953e+00	1.121431e+00	1.108154e+00	1.392095e+00	1.401217e+00	1.414650e+00	1.408970e+00	1.414981e+00	1.295644e+00	1.371352e+00	1.366212e+00	1.388766e+00	1.052551e+00	1.021551e+00	1.475333e+00	1.407403e+00	1.373834e+00	1.409533e+00	1.418850e+00	1.445790e+00	1.179118e+00	1.278955e+00	1.194449e+00	8.946628e-01	8.657152e-01	6.871792e-01	6.529972e-01	1.159345e+00	1.197916e+00	1.172780e+00	1.090401e+00	1.222830e+00	1.302083e+00	1.299547e+00	1.184129e+00	1.320571e+00	1.356213e+00	1.448523e+00	1.387417e+00	1.371426e+00	1.209985e+00	1.148864e+00	1.375738e+00	1.398665e+00	1.099055e+00	1.319303e+00	1.308736e+00	1.283461e+00	1.283822e+00	1.115285e+00	1.030038e+00	1.248287e+00	1.232205e+00	1.234238e+00	1.254570e+00	1.160245e+00	1.501408e+00	1.501849e+00	1.578250e+00	1.171021e+00	1.160118e+00	1.122497e+00	1.099776e+00	1.022806e+00	1.070539e+00	1.263205e+00	1.249126e+00	1.197238e+00	1.224769e+00	1.200056e+00	1.110021e+00	1.095763e+00	1.224771e+00	1.181320e+00	1.221707e+00	1.253276e+00	1.214627e+00	1.412444e+00	1.401828e+00	1.436704e+00	1.436096e+00	1.436619e+00	1.422578e+00	1.173508e+00	9.987148e-01	1.076851e+00	1.276614e+00	1.360156e+00	1.197184e+00	1.244445e+00	9.670774e-01	1.000290e+00	7.007362e-01	7.699369e-01	1.283362e+00	1.111945e+00	1.268914e+00	1.270487e+00	1.256953e+00	1.297305e+00	1.280604e+00	1.172781e+00	1.109154e+00	1.129418e+00	1.184421e+00	1.398929e+00	1.406371e+00	1.346853e+00	1.478894e+00	1.512700e+00	1.516045e+00	1.111367e+00	1.168280e+00	1.212684e+00	1.036415e+00	1.049790e+00	9.203646e-01	1.050888e+00	9.493605e-01	8.605048e-01	8.875470e-01	1.210763e+00	1.366073e+00	1.390490e+00	1.445241e+00	1.379726e+00	1.112434e+00	1.029041e+00	9.277040e-01	8.166930e-01	1.400482e+00	1.201281e+00	1.227288e+00	1.092685e+00	1.140344e+00	1.001743e+00	1.124690e+00	1.397904e+00	1.384500e+00	1.323122e+00	1.347621e+00	1.361127e+00	1.060160e+00	1.255242e+00	8.480176e-01	1.155475e+00	1.475786e+00	1.329540e+00	1.267303e+00	1.295279e+00	1.296641e+00	1.318235e+00	1.156566e+00	1.219495e+00	1.214306e+00	1.128996e+00	1.118616e+00	1.415742e+00	1.411766e+00	1.417766e+00	8.454773e-01	6.552012