# vtk DataFile Version 3.0
vtk output
ASCII
DATASET UNSTRUCTURED_GRID
POINTS 198 double
0.000000e+00	0.000000e+00	0.0	3.327828e-03	3.731697e-03	0.0	6.909815e-03	7.449286e-03	0.0	1.144272e-02	1.034182e-02	0.0	1.622947e-02	1.317409e-02	0.0	2.151230e-02	1.550387e-02	0.0	2.702388e-02	1.781401e-02	0.0	3.285493e-02	1.988888e-02	0.0	3.892602e-02	2.191759e-02	0.0	4.529140e-02	2.374540e-02	0.0	5.193878e-02	2.534963e-02	0.0	5.888972e-02	2.665663e-02	0.0	6.614780e-02	2.734633e-02	0.0	7.367379e-02	2.773140e-02	0.0	8.143570e-02	2.727012e-02	0.0	8.944113e-02	2.686222e-02	0.0	9.769410e-02	2.653532e-02	0.0	1.061723e-01	2.699162e-02	0.0	1.148890e-01	2.778042e-02	0.0	1.236648e-01	2.970082e-02	0.0	1.326354e-01	3.196158e-02	0.0	1.417769e-01	3.454085e-02	0.0	1.510968e-01	3.741168e-02	0.0	1.606587e-01	4.034517e-02	0.0	1.706022e-01	4.283686e-02	0.0	1.807857e-01	4.538868e-02	0.0	1.913175e-01	4.738207e-02	0.0	2.022386e-01	4.857143e-02	0.0	2.133971e-01	4.978663e-02	0.0	2.248381e-01	4.956936e-02	0.0	2.365171e-01	4.909137e-02	0.0	2.484041e-01	4.838137e-02	0.0	2.604695e-01	4.712085e-02	0.0	2.727450e-01	4.583839e-02	0.0	2.852395e-01	4.470813e-02	0.0	2.979344e-01	4.362287e-02	0.0	3.108241e-01	4.271738e-02	0.0	3.239282e-01	4.261864e-02	0.0	3.371989e-01	4.251865e-02	0.0	3.506133e-01	4.295671e-02	0.0	3.641661e-01	4.366379e-02	0.0	3.778481e-01	4.442438e-02	0.0	3.916341e-01	4.544120e-02	0.0	4.055268e-01	4.646588e-02	0.0	4.195208e-01	4.738089e-02	0.0	4.335986e-01	4.823802e-02	0.0	4.477442e-01	4.905780e-02	0.0	4.619533e-01	4.964511e-02	0.0	4.761992e-01	5.023395e-02	0.0	4.904676e-01	5.081446e-02	0.0	5.047437e-01	5.139043e-02	0.0	5.190103e-01	5.200878e-02	0.0	5.332438e-01	5.284509e-02	0.0	5.474405e-01	5.367924e-02	0.0	5.615709e-01	5.472300e-02	0.0	5.756282e-01	5.586861e-02	0.0	5.896089e-01	5.696685e-02	0.0	6.035119e-01	5.784031e-02	0.0	6.173082e-01	5.870707e-02	0.0	6.310019e-01	5.894431e-02	0.0	6.445726e-01	5.883848e-02	0.0	6.579856e-01	5.853436e-02	0.0	6.711496e-01	5.685232e-02	0.0	6.841484e-01	5.519139e-02	0.0	6.968432e-01	5.283255e-02	0.0	7.092604e-01	4.997717e-02	0.0	7.214872e-01	4.716557e-02	0.0	7.334061e-01	4.396102e-02	0.0	7.451194e-01	4.080474e-02	0.0	7.566605e-01	3.785685e-02	0.0	7.680372e-01	3.517352e-02	0.0	7.791902e-01	3.254294e-02	0.0	7.902828e-01	3.083554e-02	0.0	8.011452e-01	2.919444e-02	0.0	8.118193e-01	2.801395e-02	0.0	8.222752e-01	2.707110e-02	0.0	8.324902e-01	2.621656e-02	0.0	8.424642e-01	2.546730e-02	0.0	8.521838e-01	2.468192e-02	0.0	8.616319e-01	2.367565e-02	0.0	8.708310e-01	2.269591e-02	0.0	8.797505e-01	2.149187e-02	0.0	8.884166e-01	2.026646e-02	0.0	8.968277e-01	1.900945e-02	0.0	9.049773e-01	1.766683e-02	0.0	9.128868e-01	1.636374e-02	0.0	9.205462e-01	1.502484e-02	0.0	9.279690e-01	1.371229e-02	0.0	9.351587e-01	1.242733e-02	0.0	9.421170e-01	1.116038e-02	0.0	9.488519e-01	9.933537e-03	0.0	9.553619e-01	8.717496e-03	0.0	9.616567e-01	7.541646e-03	0.0	9.677364e-01	6.382420e-03	0.0	9.736090e-01	5.258598e-03	0.0	9.792755e-01	4.150902e-03	0.0	9.847433e-01	3.073047e-03	0.0	9.900159e-01	2.017350e-03	0.0	9.950976e-01	9.818531e-04	0.0	1.000000e+00	0.000000e+00	0.0	9.950044e-01	2.101939e-04	0.0	9.898202e-01	4.011184e-04	0.0	9.844417e-01	5.435769e-04	0.0	9.788644e-01	6.429183e-04	0.0	9.730842e-01	7.185875e-04	0.0	9.670960e-01	7.377689e-04	0.0	9.608956e-01	7.342940e-04	0.0	9.544786e-01	6.659505e-04	0.0	9.478406e-01	5.814314e-04	0.0	9.409786e-01	4.012755e-04	0.0	9.338870e-01	2.150891e-04	0.0	9.265653e-01	-7.894890e-05	0.0	9.190072e-01	-4.057703e-04	0.0	9.112118e-01	-8.022966e-04	0.0	9.031782e-01	-1.311236e-03	0.0	8.948985e-01	-1.835767e-03	0.0	8.863848e-01	-2.566729e-03	0.0	8.776230e-01	-3.344327e-03	0.0	8.686224e-01	-4.266435e-03	0.0	8.593870e-01	-5.382050e-03	0.0	8.499022e-01	-6.550034e-03	0.0	8.402193e-01	-8.132448e-03	0.0	8.302856e-01	-9.755839e-03	0.0	8.201847e-01	-1.185077e-02	0.0	8.098610e-01	-1.411966e-02	0.0	7.993751e-01	-1.676537e-02	0.0	7.887289e-01	-1.978417e-02	0.0	7.778780e-01	-2.296185e-02	0.0	7.669563e-01	-2.671257e-02	0.0	7.558133e-01	-3.053928e-02	0.0	7.444950e-01	-3.455567e-02	0.0	7.329895e-01	-3.870965e-02	0.0	7.212775e-01	-4.292497e-02	0.0	7.092499e-01	-4.686054e-02	0.0	6.970329e-01	-5.085805e-02	0.0	6.845303e-01	-5.454985e-02	0.0	6.716973e-01	-5.774497e-02	0.0	6.586992e-01	-6.098115e-02	0.0	6.453514e-01	-6.328893e-02	0.0	6.318149e-01	-6.540624e-02	0.0	6.181140e-01	-6.729845e-02	0.0	6.042175e-01	-6.861474e-02	0.0	5.902123e-01	-6.994134e-02	0.0	5.760856e-01	-7.094936e-02	0.0	5.618711e-01	-7.188132e-02	0.0	5.475881e-01	-7.279563e-02	0.0	5.332497e-01	-7.366659e-02	0.0	5.188737e-01	-7.453983e-02	0.0	5.044645e-01	-7.521166e-02	0.0	4.900457e-01	-7.584752e-02	0.0	4.756293e-01	-7.626009e-02	0.0	4.612268e-01	-7.630830e-02	0.0	4.468621e-01	-7.635639e-02	0.0	4.325740e-01	-7.556599e-02	0.0	4.183553e-01	-7.470019e-02	0.0	4.042458e-01	-7.351944e-02	0.0	3.902668e-01	-7.194020e-02	0.0	3.763963e-01	-7.037322e-02	0.0	3.626484e-01	-6.881267e-02	0.0	3.490347e-01	-6.726696e-02	0.0	3.355389e-01	-6.607204e-02	0.0	3.221663e-01	-6.530013e-02	0.0	3.089635e-01	-6.453802e-02	0.0	2.959263e-01	-6.489100e-02	0.0	2.830783e-01	-6.529688e-02	0.0	2.704382e-01	-6.587811e-02	0.0	2.580161e-01	-6.667553e-02	0.0	2.458089e-01	-6.745916e-02	0.0	2.338016e-01	-6.767243e-02	0.0	2.220210e-01	-6.783618e-02	0.0	2.105087e-01	-6.736792e-02	0.0	1.992855e-01	-6.597874e-02	0.0	1.883034e-01	-6.461943e-02	0.0	1.778016e-01	-6.206890e-02	0.0	1.675812e-01	-5.937268e-02	0.0	1.576516e-01	-5.658167e-02	0.0	1.481117e-01	-5.337188e-02	0.0	1.388126e-01	-5.024310e-02	0.0	1.297390e-01	-4.724284e-02	0.0	1.208960e-01	-4.435524e-02	0.0	1.122941e-01	-4.154640e-02	0.0	1.037817e-01	-3.933258e-02	0.0	9.550616e-02	-3.720252e-02	0.0	8.743482e-02	-3.529280e-02	0.0	7.955611e-02	-3.364249e-02	0.0	7.191574e-02	-3.204368e-02	0.0	6.450269e-02	-3.053444e-02	0.0	5.732222e-02	-2.907256e-02	0.0	5.043283e-02	-2.738632e-02	0.0	4.378143e-02	-2.568993e-02	0.0	3.746084e-02	-2.367042e-02	0.0	3.138116e-02	-2.161621e-02	0.0	2.568014e-02	-1.917995e-02	0.0	2.023674e-02	-1.669259e-02	0.0	1.511555e-02	-1.401098e-02	0.0	1.035201e-02	-1.111735e-02	0.0	5.964343e-03	-8.028941e-03	0.0	2.156516e-03	-4.505749e-03	0.0	
CELLS 198	594
2	10	11	2	11	12	2	12	13	2	13	14	2	14	15	2	15	16	2	16	17	2	17	18	2	18	19	2	19	20	2	20	21	2	21	22	2	22	23	2	23	24	2	24	25	2	25	26	2	26	27	2	27	28	2	28	29	2	29	30	2	30	31	2	31	32	2	32	33	2	33	34	2	34	35	2	35	36	2	36	37	2	37	38	2	38	39	2	39	40	2	40	41	2	41	42	2	42	43	2	43	44	2	44	45	2	45	46	2	46	47	2	47	48	2	48	49	2	49	50	2	50	51	2	51	52	2	52	53	2	53	54	2	54	55	2	55	56	2	56	57	2	57	58	2	58	59	2	59	60	2	60	61	2	61	62	2	62	63	2	63	64	2	64	65	2	65	66	2	66	67	2	67	68	2	68	69	2	69	70	2	70	71	2	71	72	2	72	73	2	73	74	2	74	75	2	75	76	2	76	77	2	77	78	2	78	79	2	79	80	2	80	81	2	81	82	2	82	83	2	83	84	2	84	85	2	85	86	2	86	87	2	87	88	2	88	89	2	89	90	2	90	91	2	91	92	2	92	93	2	93	94	2	94	95	2	95	96	2	96	97	2	97	98	2	98	99	2	99	100	2	100	101	2	101	102	2	102	103	2	103	104	2	104	105	2	105	106	2	106	107	2	107	108	2	108	109	2	109	110	2	110	111	2	111	112	2	112	113	2	113	114	2	114	115	2	115	116	2	116	117	2	117	118	2	118	119	2	119	120	2	120	121	2	121	122	2	122	123	2	123	124	2	124	125	2	125	126	2	126	127	2	127	128	2	128	129	2	129	130	2	130	131	2	131	132	2	132	133	2	133	134	2	134	135	2	135	136	2	136	137	2	137	138	2	138	139	2	139	140	2	140	141	2	141	142	2	142	143	2	143	144	2	144	145	2	145	146	2	0	1	2	1	2	2	2	3	2	3	4	2	4	5	2	5	6	2	6	7	2	7	8	2	8	9	2	9	10	2	146	147	2	147	148	2	148	149	2	149	150	2	150	151	2	151	152	2	152	153	2	153	154	2	154	155	2	155	156	2	156	157	2	157	158	2	158	159	2	159	160	2	160	161	2	161	162	2	162	163	2	163	164	2	164	165	2	165	166	2	166	167	2	167	168	2	168	169	2	169	170	2	170	171	2	171	172	2	172	173	2	173	174	2	174	175	2	175	176	2	176	177	2	177	178	2	178	179	2	179	180	2	180	181	2	181	182	2	182	183	2	183	184	2	184	185	2	185	186	2	186	187	2	187	188	2	188	189	2	189	190	2	190	191	2	191	192	2	192	193	2	193	194	2	194	195	2	195	196	2	196	197	2	197	0	
CELL_TYPES 198
3	3	3	3	3	3	3	3	3	3	3	3	3	3	3	3	3	3	3	3	3	3	3	3	3	3	3	3	3	3	3	3	3	3	3	3	3	3	3	3	3	3	3	3	3	3	3	3	3	3	3	3	3	3	3	3	3	3	3	3	3	3	3	3	3	3	3	3	3	3	3	3	3	3	3	3	3	3	3	3	3	3	3	3	3	3	3	3	3	3	3	3	3	3	3	3	3	3	3	3	3	3	3	3	3	3	3	3	3	3	3	3	3	3	3	3	3	3	3	3	3	3	3	3	3	3	3	3	3	3	3	3	3	3	3	3	3	3	3	3	3	3	3	3	3	3	3	3	3	3	3	3	3	3	3	3	3	3	3	3	3	3	3	3	3	3	3	3	3	3	3	3	3	3	3	3	3	3	3	3	3	3	3	3	3	3	3	3	3	3	3	3	3	3	3	3	3	3	
POINT_DATA 198

SCALARS Density double 1
LOOKUP_TABLE default
1.481575e+00	1.157285e+00	1.137062e+00	1.054026e+00	1.022568e+00	9.926932e-01	9.895451e-01	9.726512e-01	9.459619e-01	8.956916e-01	8.420302e-01	7.399523e-01	6.589834e-01	6.335815e-01	7.808802e-01	1.114771e+00	1.229488e+00	1.245713e+00	1.246700e+00	1.241728e+00	1.212682e+00	1.186003e+00	1.149707e+00	1.082626e+00	1.027761e+00	9.669071e-01	8.706820e-01	8.170928e-01	7.354774e-01	6.512812e-01	6.283627e-01	6.000823e-01	5.788852e-01	6.028022e-01	7.526624e-01	1.062325e+00	1.160918e+00	1.162434e+00	1.159140e+00	1.162447e+00	1.151179e+00	1.143038e+00	1.133171e+00	1.117628e+00	1.107939e+00	1.102483e+00	1.095386e+00	1.093668e+00	1.097694e+00	1.097877e+00	1.098296e+00	1.099613e+00	1.094735e+00	1.084841e+00	1.073239e+00	1.047506e+00	1.014056e+00	9.827492e-01	9.348440e-01	8.823131e-01	8.444767e-01	7.585749e-01	7.016091e-01	7.247161e-01	8.596358e-01	1.031941e+00	1.086746e+00	1.119716e+00	1.154799e+00	1.177458e+00	1.190696e+00	1.208556e+00	1.214356e+00	1.210043e+00	1.212629e+00	1.205276e+00	1.199362e+00	1.194392e+00	1.186433e+00	1.186923e+00	1.187330e+00	1.188891e+00	1.196184e+00	1.199397e+00	1.205391e+00	1.211501e+00	1.216462e+00	1.222717e+00	1.227238e+00	1.232343e+00	1.236625e+00	1.241196e+00	1.245594e+00	1.249993e+00	1.254647e+00	1.258578e+00	1.263993e+00	1.273387e+00	1.246974e+00	1.306067e+00	1.417376e+00	1.403661e+00	1.399093e+00	1.401655e+00	1.404846e+00	1.407330e+00	1.409517e+00	1.412670e+00	1.414343e+00	1.416629e+00	1.419063e+00	1.419918e+00	1.423923e+00	1.424148e+00	1.428463e+00	1.430961e+00	1.431123e+00	1.435579e+00	1.434453e+00	1.440698e+00	1.440408e+00	1.441690e+00	1.442697e+00	1.437668e+00	1.436837e+00	1.425402e+00	1.420859e+00	1.407172e+00	1.383137e+00	1.364838e+00	1.336760e+00	1.299258e+00	1.267720e+00	1.228737e+00	1.177346e+00	1.144190e+00	1.068747e+00	1.016189e+00	1.009342e+00	9.962243e-01	1.017141e+00	1.042898e+00	1.062787e+00	1.089372e+00	1.102848e+00	1.105852e+00	1.096388e+00	1.085618e+00	1.066288e+00	1.039024e+00	1.024760e+00	1.009417e+00	1.030726e+00	1.073505e+00	1.100823e+00	1.148711e+00	1.193405e+00	1.225799e+00	1.263029e+00	1.293043e+00	1.300561e+00	1.325442e+00	1.328659e+00	1.299595e+00	1.283598e+00	1.254858e+00	1.199387e+00	1.151117e+00	1.046743e+00	9.452756e-01	9.517867e-01	9.707813e-01	1.036617e+00	1.136935e+00	1.178255e+00	1.232688e+00	1.292877e+00	1.327490e+00	1.354008e+00	1.390875e+00	1.408032e+00	1.409112e+00	1.420055e+00	1.418845e+00	1.416003e+00	1.415842e+00	1.405244e+00	1.404362e+00	1.405273e+00	1.413550e+00	1.425801e+00	1.448694e+00	1.479286e+00	1.506243e+00	1.536921e+00	1.576567e+00	1.599292e+00	1.674330e+00	
VECTORS Momentum double
4.217157e+01	2.257801e+02	0.0	1.843840e+02	1.899401e+02	0.0	2.198096e+02	1.791532e+02	0.0	2.518712e+02	1.544056e+02	0.0	2.718524e+02	1.390263e+02	0.0	2.811800e+02	1.204331e+02	0.0	2.883795e+02	1.112669e+02	0.0	2.951195e+02	1.015983e+02	0.0	2.998755e+02	9.344139e+01	0.0	3.007165e+02	7.992453e+01	0.0	3.013596e+02	6.615970e+01	0.0	2.895173e+02	4.139090e+01	0.0	2.768834e+02	1.911701e+01	0.0	2.622597e+02	3.533572e+00	0.0	2.373484e+02	-9.695790e+00	0.0	2.149418e+02	-7.547178e+00	0.0	1.953153e+02	2.422850e+00	0.0	1.854543e+02	1.392216e+01	0.0	1.809741e+02	2.797244e+01	0.0	1.888324e+02	4.449325e+01	0.0	2.018266e+02	5.361429e+01	0.0	2.156128e+02	6.342744e+01	0.0	2.342904e+02	7.242262e+01	0.0	2.503017e+02	6.975786e+01	0.0	2.635696e+02	6.568994e+01	0.0	2.768627e+02	6.115559e+01	0.0	2.790473e+02	4.136018e+01	0.0	2.806249e+02	3.095747e+01	0.0	2.769351e+02	1.289714e+01	0.0	2.603962e+02	-8.099253e+00	0.0	2.575753e+02	-1.377843e+01	0.0	2.523140e+02	-2.055547e+01	0.0	2.474651e+02	-2.580642e+01	0.0	2.493209e+02	-2.494874e+01	0.0	2.477279e+02	-2.139231e+01	0.0	2.433272e+02	-1.694433e+01	0.0	2.329066e+02	-7.633905e+00	0.0	2.290114e+02	-1.240030e+00	0.0	2.248972e+02	2.813125e+00	0.0	2.250953e+02	9.532579e+00	0.0	2.279996e+02	1.226275e+01	0.0	2.312663e+02	1.495221e+01	0.0	2.357278e+02	1.747504e+01	0.0	2.400182e+02	1.664149e+01	0.0	2.430487e+02	1.527185e+01	0.0	2.457424e+02	1.464080e+01	0.0	2.480518e+02	1.231928e+01	0.0	2.482895e+02	1.014737e+01	0.0	2.482670e+02	1.015149e+01	0.0	2.480448e+02	1.010046e+01	0.0	2.476204e+02	1.031805e+01	0.0	2.482072e+02	1.265823e+01	0.0	2.500907e+02	1.470540e+01	0.0	2.517615e+02	1.662717e+01	0.0	2.562664e+02	1.995378e+01	0.0	2.619315e+02	2.085007e+01	0.0	2.666630e+02	1.865930e+01	0.0	2.727107e+02	1.716412e+01	0.0	2.768785e+02	1.131134e+01	0.0	2.773300e+02	1.261224e+00	0.0	2.798719e+02	-4.102326e+00	0.0	2.733411e+02	-1.968519e+01	0.0	2.611743e+02	-3.347385e+01	0.0	2.613904e+02	-3.995598e+01	0.0	2.486270e+02	-5.116528e+01	0.0	2.379051e+02	-5.415684e+01	0.0	2.301588e+02	-5.764050e+01	0.0	2.169729e+02	-5.831991e+01	0.0	2.056065e+02	-5.386431e+01	0.0	1.979073e+02	-4.852923e+01	0.0	1.884212e+02	-4.446217e+01	0.0	1.825778e+02	-3.553691e+01	0.0	1.826939e+02	-2.774191e+01	0.0	1.829120e+02	-2.405163e+01	0.0	1.849701e+02	-1.845087e+01	0.0	1.883642e+02	-1.633844e+01	0.0	1.918368e+02	-1.523163e+01	0.0	1.959694e+02	-1.524865e+01	0.0	1.985838e+02	-1.862485e+01	0.0	1.987886e+02	-2.115314e+01	0.0	1.983742e+02	-2.391366e+01	0.0	1.958958e+02	-2.714428e+01	0.0	1.935613e+02	-2.809968e+01	0.0	1.906067e+02	-2.988734e+01	0.0	1.871444e+02	-3.085633e+01	0.0	1.837631e+02	-3.117213e+01	0.0	1.802752e+02	-3.168806e+01	0.0	1.768121e+02	-3.139650e+01	0.0	1.734957e+02	-3.130020e+01	0.0	1.704151e+02	-3.102055e+01	0.0	1.670976e+02	-3.081604e+01	0.0	1.637096e+02	-3.057526e+01	0.0	1.602140e+02	-3.023019e+01	0.0	1.566433e+02	-2.991029e+01	0.0	1.528955e+02	-2.952508e+01	0.0	1.484697e+02	-2.919686e+01	0.0	1.445409e+02	-2.857818e+01	0.0	1.378581e+02	-2.762439e+01	0.0	1.246618e+02	-2.917648e+01	0.0	1.927632e+02	4.184347e+00	0.0	2.850309e+02	-1.344811e+01	0.0	2.784142e+02	-9.704755e+00	0.0	2.710642e+02	-6.181432e+00	0.0	2.684939e+02	-4.133834e+00	0.0	2.676707e+02	-2.197480e+00	0.0	2.665264e+02	-3.279567e-01	0.0	2.656066e+02	1.514887e+00	0.0	2.645030e+02	3.079804e+00	0.0	2.634170e+02	5.159996e+00	0.0	2.626096e+02	6.896345e+00	0.0	2.615215e+02	8.745738e+00	0.0	2.605694e+02	1.087347e+01	0.0	2.596030e+02	1.217333e+01	0.0	2.581915e+02	1.475869e+01	0.0	2.572898e+02	1.622524e+01	0.0	2.556180e+02	1.908636e+01	0.0	2.546099e+02	2.223276e+01	0.0	2.534626e+02	2.423577e+01	0.0	2.518788e+02	2.822568e+01	0.0	2.507731e+02	3.050062e+01	0.0	2.484271e+02	3.565092e+01	0.0	2.477099e+02	4.043751e+01	0.0	2.467076e+02	4.567531e+01	0.0	2.464405e+02	5.264248e+01	0.0	2.471692e+02	5.828085e+01	0.0	2.481522e+02	6.655732e+01	0.0	2.512915e+02	7.229360e+01	0.0	2.532271e+02	8.050823e+01	0.0	2.588207e+02	8.887543e+01	0.0	2.664707e+02	9.291093e+01	0.0	2.723978e+02	9.738995e+01	0.0	2.810898e+02	1.011925e+02	0.0	2.917358e+02	1.000086e+02	0.0	2.988683e+02	9.784582e+01	0.0	3.058480e+02	9.521461e+01	0.0	3.158287e+02	8.515121e+01	0.0	3.176125e+02	7.921823e+01	0.0	3.238166e+02	6.810487e+01	0.0	3.290236e+02	5.416680e+01	0.0	3.257395e+02	4.831677e+01	0.0	3.298423e+02	3.829785e+01	0.0	3.296718e+02	3.127651e+01	0.0	3.292912e+02	2.725721e+01	0.0	3.301925e+02	2.247844e+01	0.0	3.288197e+02	2.138534e+01	0.0	3.285938e+02	2.041691e+01	0.0	3.284105e+02	1.992753e+01	0.0	3.296389e+02	1.754199e+01	0.0	3.300580e+02	1.491032e+01	0.0	3.301433e+02	1.180304e+01	0.0	3.310964e+02	5.647119e+00	0.0	3.285816e+02	1.515343e+00	0.0	3.305495e+02	-8.921394e+00	0.0	3.308069e+02	-1.947728e+01	0.0	3.267968e+02	-2.354977e+01	0.0	3.251854e+02	-3.227758e+01	0.0	3.192205e+02	-3.619669e+01	0.0	3.132456e+02	-3.537455e+01	0.0	3.076949e+02	-3.503265e+01	0.0	3.011434e+02	-3.056097e+01	0.0	2.964065e+02	-2.164706e+01	0.0	2.935395e+02	-1.721048e+01	0.0	2.896173e+02	-4.611679e+00	0.0	2.920848e+02	8.630574e+00	0.0	2.982109e+02	1.137965e+01	0.0	3.025629e+02	1.651300e+01	0.0	3.078935e+02	1.990138e+01	0.0	3.177631e+02	1.216282e+01	0.0	3.205174e+02	5.245626e+00	0.0	3.219732e+02	-3.814877e+00	0.0	3.289307e+02	-2.696969e+01	0.0	3.255772e+02	-4.035621e+01	0.0	3.270888e+02	-6.113890e+01	0.0	3.232921e+02	-8.287260e+01	0.0	3.132292e+02	-8.516365e+01	0.0	3.053848e+02	-9.454908e+01	0.0	2.941656e+02	-9.953781e+01	0.0	2.840928e+02	-9.468809e+01	0.0	2.769015e+02	-9.094501e+01	0.0	2.685092e+02	-8.795667e+01	0.0	2.618897e+02	-7.690795e+01	0.0	2.613197e+02	-6.746178e+01	0.0	2.612319e+02	-6.459627e+01	0.0	2.603413e+02	-5.802150e+01	0.0	2.619437e+02	-5.480445e+01	0.0	2.629304e+02	-5.430393e+01	0.0	2.638906e+02	-5.353375e+01	0.0	2.645921e+02	-5.920668e+01	0.0	2.615804e+02	-6.543077e+01	0.0	2.558486e+02	-7.339207e+01	0.0	2.470157e+02	-8.107721e+01	0.0	2.332836e+02	-8.910616e+01	0.0	2.125673e+02	-9.409966e+01	0.0	1.892142e+02	-9.238271e+01	0.0	1.603183e+02	-8.971561e+01	0.0	1.203579e+02	-7.763174e+01	0.0	6.459752e+01	-4.893981e+01	0.0	-1.726271e+01	3.052720e+01	0.0	
SCALARS Energy double 1
LOOKUP_TABLE default
3.263819e+05	2.596196e+05	2.566867e+05	2.404062e+05	2.347796e+05	2.287410e+05	2.283865e+05	2.252378e+05	2.200407e+05	2.096821e+05	1.987536e+05	1.769798e+05	1.596063e+05	1.529099e+05	1.796653e+05	2.476776e+05	2.710606e+05	2.741124e+05	2.742027e+05	2.736118e+05	2.681200e+05	2.632815e+05	2.567983e+05	2.436879e+05	2.331366e+05	2.215618e+05	2.018733e+05	1.911311e+05	1.744250e+05	1.561247e+05	1.513937e+05	1.453904e+05	1.408142e+05	1.456029e+05	1.749576e+05	2.383770e+05	2.584397e+05	2.585315e+05	2.576061e+05	2.583268e+05	2.561150e+05	2.545923e+05	2.527840e+05	2.497685e+05	2.479151e+05	2.469380e+05	2.455903e+05	2.452394e+05	2.460815e+05	2.461053e+05	2.461664e+05	2.464873e+05	2.455950e+05	2.436424e+05	2.415378e+05	2.365787e+05	2.299753e+05	2.239733e+05	2.144653e+05	2.037921e+05	1.963870e+05	1.786486e+05	1.662684e+05	1.709453e+05	1.971288e+05	2.320285e+05	2.430726e+05	2.492623e+05	2.560188e+05	2.603819e+05	2.627117e+05	2.661777e+05	2.673630e+05	2.664287e+05	2.670421e+05	2.656139e+05	2.645053e+05	2.636377e+05	2.620806e+05	2.622069e+05	2.622885e+05	2.625233e+05	2.639738e+05	2.645356e+05	2.656654e+05	2.668232e+05	2.677370e+05	2.689268e+05	2.697574e+05	2.707247e+05	2.715103e+05	2.723587e+05	2.731689e+05	2.739806e+05	2.748444e+05	2.755348e+05	2.765638e+05	2.783651e+05	2.722974e+05	2.873006e+05	3.155795e+05	3.122973e+05	3.109143e+05	3.113127e+05	3.119419e+05	3.124052e+05	3.128189e+05	3.134283e+05	3.137266e+05	3.141702e+05	3.146317e+05	3.147670e+05	3.155689e+05	3.155503e+05	3.164239e+05	3.168785e+05	3.168745e+05	3.177718e+05	3.174738e+05	3.187585e+05	3.186147e+05	3.188879e+05	3.190976e+05	3.180838e+05	3.180050e+05	3.157290e+05	3.150028e+05	3.123279e+05	3.076824e+05	3.043152e+05	2.988339e+05	2.915712e+05	2.856364e+05	2.779625e+05	2.677702e+05	2.614889e+05	2.460920e+05	2.357642e+05	2.346238e+05	2.315920e+05	2.360642e+05	2.411849e+05	2.451517e+05	2.506055e+05	2.532290e+05	2.538178e+05	2.518680e+05	2.497670e+05	2.458607e+05	2.403282e+05	2.375167e+05	2.341828e+05	2.386784e+05	2.474142e+05	2.526562e+05	2.623904e+05	2.711574e+05	2.774088e+05	2.847485e+05	2.905324e+05	2.917422e+05	2.967549e+05	2.971545e+05	2.912171e+05	2.882735e+05	2.825820e+05	2.714382e+05	2.621813e+05	2.410215e+05	2.206621e+05	2.227536e+05	2.263625e+05	2.400604e+05	2.605522e+05	2.682921e+05	2.791654e+05	2.910304e+05	2.975304e+05	3.025933e+05	3.098257e+05	3.129053e+05	3.129653e+05	3.152388e+05	3.148546e+05	3.143005e+05	3.143131e+05	3.121127e+05	3.120288e+05	3.121393e+05	3.137029e+05	3.159721e+05	3.203141e+05	3.260175e+05	3.308497e+05	3.364347e+05	3.437538e+05	3.474099e+05	3.632010e+05	
SCALARS Pressure double 1
LOOKUP_TABLE default
1.234313e+05	9.173765e+04	8.853083e+04	7.960119e+04	7.567695e+04	7.264538e+04	7.204409e+04	7.006373e+04	6.715780e+04	6.225415e+04	5.689070e+04	4.767326e+04	4.046415e+04	3.944847e+04	5.741363e+04	9.077214e+04	1.022178e+05	1.040920e+05	1.043014e+05	1.033826e+05	1.000559e+05	9.679457e+04	9.225805e+04	8.500234e+04	7.889641e+04	7.199582e+04	6.246986e+04	5.694213e+04	4.886944e+04	4.160734e+04	3.938024e+04	3.679745e+04	3.493806e+04	3.741068e+04	5.355423e+04	8.414983e+04	9.402058e+04	9.438882e+04	9.431414e+04	9.459763e+04	9.338846e+04	9.243956e+04	9.125225e+04	8.954873e+04	8.846042e+04	8.778115e+04	8.697406e+04	8.680338e+04	8.718363e+04	8.721532e+04	8.728152e+04	8.736059e+04	8.677190e+04	8.572061e+04	8.430273e+04	8.144916e+04	7.789676e+04	7.439404e+04	6.935778e+04	6.408233e+04	6.000010e+04	5.165838e+04	4.674348e+04	4.908190e+04	6.386070e+04	8.127358e+04	8.686867e+04	9.068864e+04	9.458360e+04	9.709986e+04	9.878931e+04	1.007457e+05	1.013214e+05	1.009460e+05	1.011178e+05	1.003136e+05	9.962661e+04	9.898542e+04	9.812604e+04	9.814865e+04	9.819037e+04	9.842974e+04	9.919326e+04	9.960709e+04	1.002971e+05	1.009941e+05	1.015865e+05	1.022959e+05	1.028379e+05	1.034205e+05	1.039348e+05	1.044743e+05	1.049993e+05	1.055232e+05	1.060723e+05	1.065756e+05	1.071906e+05	1.082413e+05	1.062899e+05	1.092276e+05	1.147425e+05	1.138609e+05	1.138569e+05	1.142364e+05	1.145760e+05	1.148669e+05	1.151171e+05	1.154651e+05	1.156748e+05	1.159250e+05	1.162027e+05	1.163267e+05	1.167408e+05	1.168277e+05	1.172643e+05	1.175681e+05	1.176212e+05	1.180767e+05	1.180328e+05	1.186442e+05	1.187001e+05	1.188161e+05	1.189122e+05	1.183992e+05	1.182254e+05	1.170297e+05	1.163768e+05	1.148961e+05	1.122444e+05	1.100560e+05	1.070129e+05	1.028896e+05	9.924942e+04	9.508781e+04	8.967755e+04	8.589262e+04	7.838469e+04	7.275546e+04	7.181724e+04	7.086644e+04	7.274477e+04	7.544376e+04	7.751551e+04	8.013292e+04	8.160081e+04	8.192400e+04	8.100044e+04	7.983169e+04	7.786941e+04	7.512428e+04	7.360526e+04	7.228094e+04	7.425476e+04	7.850700e+04	8.155875e+04	8.636361e+04	9.116590e+04	9.474975e+04	9.871312e+04	1.020415e+05	1.031142e+05	1.056555e+05	1.062326e+05	1.033461e+05	1.014329e+05	9.839895e+04	9.270141e+04	8.730326e+04	7.677455e+04	6.632809e+04	6.621337e+04	6.837129e+04	7.466141e+04	8.462684e+04	8.943185e+04	9.508459e+04	1.014933e+05	1.055018e+05	1.084900e+05	1.124507e+05	1.145798e+05	1.148478e+05	1.158967e+05	1.159134e+05	1.156047e+05	1.155431e+05	1.145260e+05	1.143421e+05	1.145082e+05	1.154575e+05	1.169078e+05	1.195163e+05	1.231008e+05	1.264528e+05	1.301819e+05	1.348993e+05	1.381426e+05	1.451335e+05	
SCALARS Temperature double 1
LOOKUP_TABLE default
2.902231e+02	2.761453e+02	2.712318e+02	2.630864e+02	2.578112e+02	2.549314e+02	2.536256e+02	2.509380e+02	2.473166e+02	2.421253e+02	2.353661e+02	2.244406e+02	2.139076e+02	2.168992e+02	2.561303e+02	2.836594e+02	2.896226e+02	2.910915e+02	2.914463e+02	2.900358e+02	2.874262e+02	2.843123e+02	2.795423e+02	2.735161e+02	2.674211e+02	2.593898e+02	2.499432e+02	2.427687e+02	2.314720e+02	2.225521e+02	2.183224e+02	2.136177e+02	2.102503e+02	2.161977e+02	2.478700e+02	2.759474e+02	2.821315e+02	2.828673e+02	2.834467e+02	2.834898e+02	2.826055e+02	2.817263e+02	2.805293e+02	2.791209e+02	2.781400e+02	2.773701e+02	2.766005e+02	2.764913e+02	2.766840e+02	2.767384e+02	2.768428e+02	2.767616e+02	2.761215e+02	2.752640e+02	2.736374e+02	2.708696e+02	2.676011e+02	2.637095e+02	2.584559e+02	2.530148e+02	2.475111e+02	2.372317e+02	2.320899e+02	2.359304e+02	2.587912e+02	2.743626e+02	2.784617e+02	2.821470e+02	2.853250e+02	2.872788e+02	2.890276e+02	2.903955e+02	2.906600e+02	2.906155e+02	2.904891e+02	2.899371e+02	2.893713e+02	2.887052e+02	2.881187e+02	2.880660e+02	2.880899e+02	2.884128e+02	2.888781e+02	2.893061e+02	2.898616e+02	2.904042e+02	2.909162e+02	2.914490e+02	2.919138e+02	2.923516e+02	2.927880e+02	2.932239e+02	2.936570e+02	2.940834e+02	2.945174e+02	2.949903e+02	2.954215e+02	2.961166e+02	2.969374e+02	2.913380e+02	2.820133e+02	2.825808e+02	2.834936e+02	2.839185e+02	2.841157e+02	2.843343e+02	2.845117e+02	2.847346e+02	2.849142e+02	2.850700e+02	2.852625e+02	2.853952e+02	2.856055e+02	2.857730e+02	2.859743e+02	2.862147e+02	2.863117e+02	2.865284e+02	2.866467e+02	2.868824e+02	2.870754e+02	2.871002e+02	2.871319e+02	2.868932e+02	2.866381e+02	2.860153e+02	2.853289e+02	2.844385e+02	2.827027e+02	2.809072e+02	2.788772e+02	2.758714e+02	2.727313e+02	2.695854e+02	2.653445e+02	2.615099e+02	2.554975e+02	2.494144e+02	2.478681e+02	2.478072e+02	2.491442e+02	2.520066e+02	2.540813e+02	2.562508e+02	2.577563e+02	2.580742e+02	2.573674e+02	2.561703e+02	2.544032e+02	2.518751e+02	2.502171e+02	2.494500e+02	2.509641e+02	2.547620e+02	2.580974e+02	2.619090e+02	2.661185e+02	2.692706e+02	2.722651e+02	2.749124e+02	2.761965e+02	2.776910e+02	2.785317e+02	2.770234e+02	2.752835e+02	2.731657e+02	2.692510e+02	2.642052e+02	2.555099e+02	2.444384e+02	2.423463e+02	2.453481e+02	2.509043e+02	2.593001e+02	2.644132e+02	2.687121e+02	2.734705e+02	2.768592e+02	2.791251e+02	2.816464e+02	2.834824e+02	2.839276e+02	2.843126e+02	2.845962e+02	2.844079e+02	2.842888e+02	2.839113e+02	2.836335e+02	2.838614e+02	2.845387e+02	2.856374e+02	2.873961e+02	2.898939e+02	2.924582e+02	2.950728e+02	2.980765e+02	3.009056e+02	3.019652e+02	
SCALARS Mach double 1
LOOKUP_TABLE default
4.539351e-01	6.866298e-01	7.553659e-01	8.620020e-01	9.276638e-01	9.626850e-01	9.784049e-01	1.010485e+00	1.053208e+00	1.113657e+00	1.191401e+00	1.316027e+00	1.436458e+00	1.402138e+00	9.481667e-01	5.714198e-01	4.656723e-01	4.364914e-01	4.291934e-01	4.576235e-01	5.066716e-01	5.606148e-01	6.363724e-01	7.239161e-01	8.061999e-01	9.082366e-01	1.022275e+00	1.106207e+00	1.235894e+00	1.337554e+00	1.385850e+00	1.439791e+00	1.478608e+00	1.410175e+00	1.046712e+00	6.894803e-01	5.961269e-01	5.843259e-01	5.749072e-01	5.742020e-01	5.885443e-01	6.025525e-01	6.212512e-01	6.427516e-01	6.574346e-01	6.688040e-01	6.800406e-01	6.816252e-01	6.788277e-01	6.780359e-01	6.765164e-01	6.776986e-01	6.869718e-01	6.992696e-01	7.222226e-01	7.602802e-01	8.038385e-01	8.540950e-01	9.197509e-01	9.857275e-01	1.050926e+00	1.170024e+00	1.228843e+00	1.184940e+00	9.156234e-01	7.120466e-01	6.526453e-01	5.958798e-01	5.435329e-01	5.093252e-01	4.770644e-01	4.505178e-01	4.452322e-01	4.461241e-01	4.486521e-01	4.595564e-01	4.705109e-01	4.831432e-01	4.940464e-01	4.950156e-01	4.945769e-01	4.886035e-01	4.798918e-01	4.717607e-01	4.610299e-01	4.503441e-01	4.400607e-01	4.291380e-01	4.194100e-01	4.100657e-01	4.005616e-01	3.908682e-01	3.810232e-01	3.711046e-01	3.607605e-01	3.491757e-01	3.383008e-01	3.200665e-01	2.972178e-01	4.314330e-01	5.980070e-01	5.889422e-01	5.741403e-01	5.671517e-01	5.638847e-01	5.602490e-01	5.572842e-01	5.535417e-01	5.505114e-01	5.478727e-01	5.445994e-01	5.423329e-01	5.387261e-01	5.358409e-01	5.323570e-01	5.281727e-01	5.264769e-01	5.226737e-01	5.205865e-01	5.164115e-01	5.129713e-01	5.125271e-01	5.119600e-01	5.162183e-01	5.207395e-01	5.316454e-01	5.434655e-01	5.585077e-01	5.869814e-01	6.153919e-01	6.464214e-01	6.905738e-01	7.348130e-01	7.775596e-01	8.331716e-01	8.818563e-01	9.558407e-01	1.028523e+00	1.046734e+00	1.047450e+00	1.031713e+00	9.977714e-01	9.729296e-01	9.467030e-01	9.283363e-01	9.244385e-01	9.330940e-01	9.476814e-01	9.690546e-01	9.993394e-01	1.019032e+00	1.028103e+00	1.010176e+00	9.647298e-01	9.241544e-01	8.768498e-01	8.231727e-01	7.817609e-01	7.412402e-01	7.042702e-01	6.858897e-01	6.640813e-01	6.515984e-01	6.738811e-01	6.989910e-01	7.287942e-01	7.820221e-01	8.477785e-01	9.556903e-01	1.086821e+00	1.111099e+00	1.076225e+00	1.010885e+00	9.093450e-01	8.451215e-01	7.891844e-01	7.245524e-01	6.762778e-01	6.426882e-01	6.038146e-01	5.743239e-01	5.670014e-01	5.606108e-01	5.558674e-01	5.590201e-01	5.610065e-01	5.672693e-01	5.718467e-01	5.680949e-01	5.568314e-01	5.381791e-01	5.072138e-01	4.604001e-01	4.077605e-01	3.471181e-01	2.624741e-01	1.457213e-01	6.012684e-02	
SCALARS Pressure_Coefficient double 1
LOOKUP_TABLE default