# vtk DataFile Version 3.0
vtk output
ASCII
DATASET UNSTRUCTURED_GRID
POINTS 198 double
0.000000e+00	0.000000e+00	0.0	1.488382e-03	4.706598e-03	0.0	4.729298e-03	8.709208e-03	0.0	8.960773e-03	1.200800e-02	0.0	1.377211e-02	1.481082e-02	0.0	1.898148e-02	1.729171e-02	0.0	2.450839e-02	1.956573e-02	0.0	3.031646e-02	2.170182e-02	0.0	3.640678e-02	2.368159e-02	0.0	4.275644e-02	2.556158e-02	0.0	4.934929e-02	2.740459e-02	0.0	5.620341e-02	2.915135e-02	0.0	6.330642e-02	3.085116e-02	0.0	7.065477e-02	3.253381e-02	0.0	7.826755e-02	3.411931e-02	0.0	8.612502e-02	3.570894e-02	0.0	9.424359e-02	3.723200e-02	0.0	1.026161e-01	3.873041e-02	0.0	1.112448e-01	4.020140e-02	0.0	1.201352e-01	4.161485e-02	0.0	1.292780e-01	4.303285e-02	0.0	1.386872e-01	4.436293e-02	0.0	1.483482e-01	4.570003e-02	0.0	1.582709e-01	4.696841e-02	0.0	1.684468e-01	4.821680e-02	0.0	1.788773e-01	4.942085e-02	0.0	1.895599e-01	5.057634e-02	0.0	2.004884e-01	5.171229e-02	0.0	2.116645e-01	5.277078e-02	0.0	2.230769e-01	5.382437e-02	0.0	2.347277e-01	5.478919e-02	0.0	2.466050e-01	5.573642e-02	0.0	2.587062e-01	5.661823e-02	0.0	2.710224e-01	5.745154e-02	0.0	2.835455e-01	5.824452e-02	0.0	2.962690e-01	5.895808e-02	0.0	3.091804e-01	5.965252e-02	0.0	3.222741e-01	6.024210e-02	0.0	3.355357e-01	6.080298e-02	0.0	3.489565e-01	6.128503e-02	0.0	3.625238e-01	6.170313e-02	0.0	3.762252e-01	6.207156e-02	0.0	3.900488e-01	6.233973e-02	0.0	4.039801e-01	6.257569e-02	0.0	4.180065e-01	6.270156e-02	0.0	4.321130e-01	6.277788e-02	0.0	4.462857e-01	6.277497e-02	0.0	4.605094e-01	6.267911e-02	0.0	4.747698e-01	6.253694e-02	0.0	4.890502e-01	6.225260e-02	0.0	5.033369e-01	6.192359e-02	0.0	5.176131e-01	6.147262e-02	0.0	5.318639e-01	6.093655e-02	0.0	5.460747e-01	6.032108e-02	0.0	5.602274e-01	5.957265e-02	0.0	5.743120e-01	5.878128e-02	0.0	5.883073e-01	5.783957e-02	0.0	6.022055e-01	5.685326e-02	0.0	6.159897e-01	5.577447e-02	0.0	6.296475e-01	5.462454e-02	0.0	6.431689e-01	5.343202e-02	0.0	6.565370e-01	5.215043e-02	0.0	6.697473e-01	5.085547e-02	0.0	6.827818e-01	4.947899e-02	0.0	6.956367e-01	4.808765e-02	0.0	7.082990e-01	4.665075e-02	0.0	7.207611e-01	4.518415e-02	0.0	7.330162e-01	4.370146e-02	0.0	7.450534e-01	4.217827e-02	0.0	7.568719e-01	4.066395e-02	0.0	7.684581e-01	3.910384e-02	0.0	7.798146e-01	3.756074e-02	0.0	7.909308e-01	3.599289e-02	0.0	8.018073e-01	3.443589e-02	0.0	8.124383e-01	3.287479e-02	0.0	8.228223e-01	3.131958e-02	0.0	8.329579e-01	2.977650e-02	0.0	8.428421e-01	2.823711e-02	0.0	8.524771e-01	2.672306e-02	0.0	8.618587e-01	2.521070e-02	0.0	8.709918e-01	2.373127e-02	0.0	8.798722e-01	2.225536e-02	0.0	8.885056e-01	2.081207e-02	0.0	8.968905e-01	1.938321e-02	0.0	9.050310e-01	1.798172e-02	0.0	9.129284e-01	1.660297e-02	0.0	9.205855e-01	1.524701e-02	0.0	9.280067e-01	1.392206e-02	0.0	9.351928e-01	1.261437e-02	0.0	9.421503e-01	1.134060e-02	0.0	9.488808e-01	1.008772e-02	0.0	9.553897e-01	8.864213e-03	0.0	9.616816e-01	7.671003e-03	0.0	9.677588e-01	6.497384e-03	0.0	9.736276e-01	5.353367e-03	0.0	9.792925e-01	4.236524e-03	0.0	9.847575e-01	3.143696e-03	0.0	9.900275e-01	2.075164e-03	0.0	9.951070e-01	1.028680e-03	0.0	1.000000e+00	0.000000e+00	0.0	9.950075e-01	2.737954e-04	0.0	9.898274e-01	5.203515e-04	0.0	9.844550e-01	7.375129e-04	0.0	9.788854e-01	9.212927e-04	0.0	9.731140e-01	1.058151e-03	0.0	9.671365e-01	1.153163e-03	0.0	9.609487e-01	1.210505e-03	0.0	9.545463e-01	1.200848e-03	0.0	9.479256e-01	1.136516e-03	0.0	9.410825e-01	1.034805e-03	0.0	9.340145e-01	8.383345e-04	0.0	9.267170e-01	6.061839e-04	0.0	9.191879e-01	2.982302e-04	0.0	9.114242e-01	-7.392817e-05	0.0	9.034227e-01	-5.025729e-04	0.0	8.951832e-01	-1.021846e-03	0.0	8.867004e-01	-1.579165e-03	0.0	8.779779e-01	-2.250055e-03	0.0	8.690092e-01	-2.957713e-03	0.0	8.597984e-01	-3.765968e-03	0.0	8.503413e-01	-4.627329e-03	0.0	8.406409e-01	-5.573679e-03	0.0	8.306967e-01	-6.589269e-03	0.0	8.205097e-01	-7.674194e-03	0.0	8.100834e-01	-8.842153e-03	0.0	7.994170e-01	-1.006444e-02	0.0	7.885182e-01	-1.138158e-02	0.0	7.773845e-01	-1.274152e-02	0.0	7.660274e-01	-1.420238e-02	0.0	7.544448e-01	-1.570790e-02	0.0	7.426473e-01	-1.729633e-02	0.0	7.306374e-01	-1.893775e-02	0.0	7.184233e-01	-2.064116e-02	0.0	7.060116e-01	-2.239879e-02	0.0	6.934090e-01	-2.419963e-02	0.0	6.806254e-01	-2.604841e-02	0.0	6.676678e-01	-2.792716e-02	0.0	6.545468e-01	-2.983763e-02	0.0	6.412715e-01	-3.176732e-02	0.0	6.278525e-01	-3.370993e-02	0.0	6.143004e-01	-3.565547e-02	0.0	6.006277e-01	-3.760373e-02	0.0	5.868439e-01	-3.952735e-02	0.0	5.729655e-01	-4.145022e-02	0.0	5.589983e-01	-4.331110e-02	0.0	5.449622e-01	-4.515076e-02	0.0	5.308656e-01	-4.692300e-02	0.0	5.167233e-01	-4.862443e-02	0.0	5.025516e-01	-5.026722e-02	0.0	4.883567e-01	-5.176653e-02	0.0	4.741638e-01	-5.321382e-02	0.0	4.599744e-01	-5.446492e-02	0.0	4.458146e-01	-5.562298e-02	0.0	4.316936e-01	-5.662135e-02	0.0	4.176275e-01	-5.744278e-02	0.0	4.036352e-01	-5.816324e-02	0.0	3.897255e-01	-5.862271e-02	0.0	3.759204e-01	-5.900269e-02	0.0	3.622302e-01	-5.915434e-02	0.0	3.486719e-01	-5.918556e-02	0.0	3.352576e-01	-5.907619e-02	0.0	3.220014e-01	-5.880108e-02	0.0	3.089127e-01	-5.846553e-02	0.0	2.960066e-01	-5.794473e-02	0.0	2.832883e-01	-5.739028e-02	0.0	2.707706e-01	-5.672156e-02	0.0	2.584597e-01	-5.599787e-02	0.0	2.463634e-01	-5.521498e-02	0.0	2.344907e-01	-5.435476e-02	0.0	2.228439e-01	-5.347453e-02	0.0	2.114352e-01	-5.249595e-02	0.0	2.002622e-01	-5.150968e-02	0.0	1.893361e-01	-5.044287e-02	0.0	1.786556e-01	-4.935147e-02	0.0	1.682262e-01	-4.821098e-02	0.0	1.580510e-01	-4.702214e-02	0.0	1.481282e-01	-4.581459e-02	0.0	1.384665e-01	-4.453292e-02	0.0	1.290565e-01	-4.325608e-02	0.0	1.199119e-01	-4.188860e-02	0.0	1.110202e-01	-4.051957e-02	0.0	1.023894e-01	-3.909167e-02	0.0	9.401537e-02	-3.762872e-02	0.0	8.589449e-02	-3.614143e-02	0.0	7.803635e-02	-3.457488e-02	0.0	7.042341e-02	-3.300777e-02	0.0	6.307601e-02	-3.133507e-02	0.0	5.597712e-02	-2.963069e-02	0.0	4.912807e-02	-2.787405e-02	0.0	4.254794e-02	-2.599415e-02	0.0	3.621496e-02	-2.406602e-02	0.0	3.014500e-02	-2.202964e-02	0.0	2.436666e-02	-1.981801e-02	0.0	1.887371e-02	-1.746610e-02	0.0	1.370090e-02	-1.491164e-02	0.0	8.923984e-03	-1.205166e-02	0.0	4.718738e-03	-8.719505e-03	0.0	1.489344e-03	-4.706710e-03	0.0	
CELLS 198	594
2	25	26	2	26	27	2	27	28	2	28	29	2	29	30	2	30	31	2	31	32	2	32	33	2	33	34	2	34	35	2	35	36	2	36	37	2	37	38	2	38	39	2	39	40	2	40	41	2	41	42	2	42	43	2	43	44	2	44	45	2	45	46	2	46	47	2	47	48	2	48	49	2	49	50	2	50	51	2	51	52	2	52	53	2	53	54	2	54	55	2	55	56	2	56	57	2	57	58	2	58	59	2	59	60	2	60	61	2	61	62	2	62	63	2	63	64	2	64	65	2	65	66	2	66	67	2	67	68	2	68	69	2	69	70	2	70	71	2	71	72	2	72	73	2	73	74	2	74	75	2	75	76	2	76	77	2	77	78	2	78	79	2	79	80	2	80	81	2	81	82	2	82	83	2	83	84	2	84	85	2	85	86	2	86	87	2	87	88	2	88	89	2	89	90	2	90	91	2	91	92	2	92	93	2	93	94	2	94	95	2	95	96	2	96	97	2	97	98	2	98	99	2	99	100	2	100	101	2	101	102	2	102	103	2	103	104	2	104	105	2	105	106	2	106	107	2	107	108	2	108	109	2	109	110	2	110	111	2	111	112	2	112	113	2	113	114	2	114	115	2	115	116	2	116	117	2	117	118	2	118	119	2	119	120	2	120	121	2	121	122	2	122	123	2	123	124	2	124	125	2	125	126	2	126	127	2	127	128	2	128	129	2	129	130	2	130	131	2	131	132	2	132	133	2	133	134	2	134	135	2	135	136	2	136	137	2	137	138	2	138	139	2	139	140	2	140	141	2	141	142	2	142	143	2	143	144	2	144	145	2	145	146	2	146	147	2	147	148	2	148	149	2	149	150	2	150	151	2	151	152	2	152	153	2	153	154	2	154	155	2	155	156	2	156	157	2	157	158	2	0	1	2	1	2	2	2	3	2	3	4	2	4	5	2	5	6	2	6	7	2	7	8	2	8	9	2	9	10	2	10	11	2	11	12	2	12	13	2	13	14	2	14	15	2	15	16	2	16	17	2	17	18	2	18	19	2	19	20	2	20	21	2	21	22	2	22	23	2	23	24	2	24	25	2	158	159	2	159	160	2	160	161	2	161	162	2	162	163	2	163	164	2	164	165	2	165	166	2	166	167	2	167	168	2	168	169	2	169	170	2	170	171	2	171	172	2	172	173	2	173	174	2	174	175	2	175	176	2	176	177	2	177	178	2	178	179	2	179	180	2	180	181	2	181	182	2	182	183	2	183	184	2	184	185	2	185	186	2	186	187	2	187	188	2	188	189	2	189	190	2	190	191	2	191	192	2	192	193	2	193	194	2	194	195	2	195	196	2	196	197	2	197	0	
CELL_TYPES 198
3	3	3	3	3	3	3	3	3	3	3	3	3	3	3	3	3	3	3	3	3	3	3	3	3	3	3	3	3	3	3	3	3	3	3	3	3	3	3	3	3	3	3	3	3	3	3	3	3	3	3	3	3	3	3	3	3	3	3	3	3	3	3	3	3	3	3	3	3	3	3	3	3	3	3	3	3	3	3	3	3	3	3	3	3	3	3	3	3	3	3	3	3	3	3	3	3	3	3	3	3	3	3	3	3	3	3	3	3	3	3	3	3	3	3	3	3	3	3	3	3	3	3	3	3	3	3	3	3	3	3	3	3	3	3	3	3	3	3	3	3	3	3	3	3	3	3	3	3	3	3	3	3	3	3	3	3	3	3	3	3	3	3	3	3	3	3	3	3	3	3	3	3	3	3	3	3	3	3	3	3	3	3	3	3	3	3	3	3	3	3	3	3	3	3	3	3	3	
POINT_DATA 198

SCALARS Density double 1
LOOKUP_TABLE default
1.561706e+00	1.221059e+00	1.048607e+00	9.201365e-01	8.665846e-01	8.421124e-01	8.416267e-01	8.382156e-01	8.353415e-01	8.399582e-01	8.437606e-01	8.448847e-01	8.515014e-01	8.535463e-01	8.541569e-01	8.573007e-01	8.569515e-01	8.589173e-01	8.604199e-01	8.616496e-01	8.606100e-01	8.599862e-01	8.622541e-01	8.620659e-01	8.632623e-01	8.630595e-01	8.634202e-01	8.615194e-01	8.610719e-01	8.595435e-01	8.564747e-01	8.571102e-01	8.546168e-01	8.533852e-01	8.509951e-01	8.497561e-01	8.476251e-01	8.444187e-01	8.426745e-01	8.393132e-01	8.377440e-01	8.349038e-01	8.326183e-01	8.298369e-01	8.263319e-01	8.243650e-01	8.202180e-01	8.177950e-01	8.129715e-01	8.076778e-01	8.030617e-01	7.971936e-01	7.924148e-01	7.858952e-01	7.824025e-01	7.748854e-01	7.620955e-01	7.601823e-01	8.513213e-01	1.077014e+00	1.182780e+00	1.180720e+00	1.164163e+00	1.159962e+00	1.163290e+00	1.164228e+00	1.166315e+00	1.169089e+00	1.173400e+00	1.177415e+00	1.181980e+00	1.187679e+00	1.192526e+00	1.198253e+00	1.203525e+00	1.209445e+00	1.214816e+00	1.220586e+00	1.225962e+00	1.231579e+00	1.237004e+00	1.242627e+00	1.248492e+00	1.253764e+00	1.259669e+00	1.265089e+00	1.271076e+00	1.276655e+00	1.282731e+00	1.289023e+00	1.295056e+00	1.301908e+00	1.308473e+00	1.315766e+00	1.324257e+00	1.332514e+00	1.342913e+00	1.357678e+00	1.378023e+00	1.356980e+00	1.435171e+00	1.422183e+00	1.423921e+00	1.424563e+00	1.425125e+00	1.426682e+00	1.427653e+00	1.426569e+00	1.427691e+00	1.427043e+00	1.425771e+00	1.425445e+00	1.423503e+00	1.422823e+00	1.420584e+00	1.419475e+00	1.417335e+00	1.414749e+00	1.412753e+00	1.409782e+00	1.407492e+00	1.404165e+00	1.401451e+00	1.397918e+00	1.394840e+00	1.391115e+00	1.387713e+00	1.383934e+00	1.379524e+00	1.375448e+00	1.370390e+00	1.365683e+00	1.360294e+00	1.354912e+00	1.349197e+00	1.343129e+00	1.336923e+00	1.330293e+00	1.323623e+00	1.316699e+00	1.309313e+00	1.302152e+00	1.293931e+00	1.285806e+00	1.277655e+00	1.268637e+00	1.260400e+00	1.250221e+00	1.241756e+00	1.231590e+00	1.222477e+00	1.215756e+00	1.207689e+00	1.202726e+00	1.195801e+00	1.193326e+00	1.192592e+00	1.192382e+00	1.196433e+00	1.199280e+00	1.205779e+00	1.210445e+00	1.217655e+00	1.225982e+00	1.232690e+00	1.240752e+00	1.246578e+00	1.253797e+00	1.259049e+00	1.265260e+00	1.271541e+00	1.277065e+00	1.283742e+00	1.289108e+00	1.296077e+00	1.301593e+00	1.308729e+00	1.314657e+00	1.321305e+00	1.329416e+00	1.336016e+00	1.345121e+00	1.351920e+00	1.361745e+00	1.370248e+00	1.379404e+00	1.392769e+00	1.402229e+00	1.416573e+00	1.432147e+00	1.446399e+00	1.466726e+00	1.491511e+00	1.515332e+00	1.551091e+00	1.588577e+00	1.627633e+00	1.672381e+00	
VECTORS Momentum double
1.015456e+00	2.051225e+02	0.0	1.323801e+02	2.446614e+02	0.0	2.144841e+02	2.151653e+02	0.0	2.479302e+02	1.683922e+02	0.0	2.662571e+02	1.406005e+02	0.0	2.739172e+02	1.210352e+02	0.0	2.818372e+02	1.093703e+02	0.0	2.866607e+02	9.903392e+01	0.0	2.904220e+02	8.979103e+01	0.0	2.932257e+02	8.398792e+01	0.0	2.957079e+02	7.890495e+01	0.0	2.974067e+02	7.337830e+01	0.0	2.994897e+02	7.008014e+01	0.0	3.016451e+02	6.591780e+01	0.0	3.026915e+02	6.204548e+01	0.0	3.042411e+02	5.919630e+01	0.0	3.047594e+02	5.581848e+01	0.0	3.055075e+02	5.329987e+01	0.0	3.070178e+02	5.050356e+01	0.0	3.078056e+02	4.830660e+01	0.0	3.081538e+02	4.564969e+01	0.0	3.085123e+02	4.308748e+01	0.0	3.098227e+02	4.120138e+01	0.0	3.102130e+02	3.886981e+01	0.0	3.108637e+02	3.697607e+01	0.0	3.112719e+02	3.477512e+01	0.0	3.117175e+02	3.304304e+01	0.0	3.116826e+02	3.092579e+01	0.0	3.123997e+02	2.915498e+01	0.0	3.126192e+02	2.737886e+01	0.0	3.120935e+02	2.531257e+01	0.0	3.135912e+02	2.384274e+01	0.0	3.134517e+02	2.201136e+01	0.0	3.135859e+02	2.053421e+01	0.0	3.134056e+02	1.870328e+01	0.0	3.135385e+02	1.721878e+01	0.0	3.137247e+02	1.553012e+01	0.0	3.134061e+02	1.368876e+01	0.0	3.134047e+02	1.227491e+01	0.0	3.129814e+02	1.044337e+01	0.0	3.130485e+02	9.025407e+00	0.0	3.128250e+02	7.227867e+00	0.0	3.127191e+02	5.664906e+00	0.0	3.125282e+02	4.050472e+00	0.0	3.120698e+02	2.221250e+00	0.0	3.121745e+02	8.074887e-01	0.0	3.114237e+02	-1.107949e+00	0.0	3.114066e+02	-2.619731e+00	0.0	3.107187e+02	-4.591248e+00	0.0	3.098889e+02	-6.658800e+00	0.0	3.092922e+02	-8.472201e+00	0.0	3.084866e+02	-1.065367e+01	0.0	3.078710e+02	-1.244051e+01	0.0	3.065626e+02	-1.474025e+01	0.0	3.060270e+02	-1.661010e+01	0.0	3.045547e+02	-1.863639e+01	0.0	3.034495e+02	-2.103030e+01	0.0	2.996352e+02	-2.215847e+01	0.0	2.971291e+02	-2.480728e+01	0.0	2.943303e+02	-2.451773e+01	0.0	2.943462e+02	-2.722450e+01	0.0	3.000884e+02	-2.959437e+01	0.0	3.020245e+02	-3.097059e+01	0.0	3.022646e+02	-3.242904e+01	0.0	3.022782e+02	-3.351302e+01	0.0	3.021864e+02	-3.494350e+01	0.0	3.019361e+02	-3.606498e+01	0.0	3.012476e+02	-3.727450e+01	0.0	3.006029e+02	-3.826998e+01	0.0	2.998488e+02	-3.937222e+01	0.0	2.987303e+02	-4.041697e+01	0.0	2.978924e+02	-4.123308e+01	0.0	2.967477e+02	-4.216476e+01	0.0	2.956427e+02	-4.285527e+01	0.0	2.944309e+02	-4.366746e+01	0.0	2.933864e+02	-4.429042e+01	0.0	2.921159e+02	-4.496708e+01	0.0	2.908392e+02	-4.548507e+01	0.0	2.894728e+02	-4.606045e+01	0.0	2.881331e+02	-4.655596e+01	0.0	2.867103e+02	-4.703521e+01	0.0	2.853047e+02	-4.754893e+01	0.0	2.839513e+02	-4.791045e+01	0.0	2.823390e+02	-4.834459e+01	0.0	2.808867e+02	-4.868453e+01	0.0	2.792627e+02	-4.909777e+01	0.0	2.776768e+02	-4.937050e+01	0.0	2.759341e+02	-4.973974e+01	0.0	2.740946e+02	-5.002922e+01	0.0	2.722309e+02	-5.024561e+01	0.0	2.701113e+02	-5.054237e+01	0.0	2.680150e+02	-5.060024e+01	0.0	2.656816e+02	-5.082988e+01	0.0	2.629810e+02	-5.100849e+01	0.0	2.601605e+02	-5.094042e+01	0.0	2.565609e+02	-5.090186e+01	0.0	2.524488e+02	-5.075761e+01	0.0	2.474703e+02	-5.048618e+01	0.0	2.379683e+02	-4.972754e+01	0.0	2.138212e+02	-1.799574e+01	0.0	2.744384e+02	-1.484696e+01	0.0	2.710972e+02	-1.171279e+01	0.0	2.718883e+02	-1.005835e+01	0.0	2.712529e+02	-7.646752e+00	0.0	2.710280e+02	-5.338079e+00	0.0	2.707152e+02	-3.407923e+00	0.0	2.702589e+02	-1.042258e+00	0.0	2.702435e+02	1.550478e+00	0.0	2.704681e+02	3.327879e+00	0.0	2.703035e+02	5.794259e+00	0.0	2.706919e+02	8.061249e+00	0.0	2.711376e+02	9.841916e+00	0.0	2.714386e+02	1.207449e+01	0.0	2.719848e+02	1.379393e+01	0.0	2.724669e+02	1.590671e+01	0.0	2.731543e+02	1.756963e+01	0.0	2.736495e+02	1.953097e+01	0.0	2.744771e+02	2.139170e+01	0.0	2.753754e+02	2.295155e+01	0.0	2.762003e+02	2.469834e+01	0.0	2.771506e+02	2.612815e+01	0.0	2.780169e+02	2.774960e+01	0.0	2.790696e+02	2.910676e+01	0.0	2.800310e+02	3.060425e+01	0.0	2.811454e+02	3.185588e+01	0.0	2.821761e+02	3.322641e+01	0.0	2.833504e+02	3.440764e+01	0.0	2.844778e+02	3.565814e+01	0.0	2.857185e+02	3.693005e+01	0.0	2.870582e+02	3.796838e+01	0.0	2.883432e+02	3.911299e+01	0.0	2.898342e+02	4.001939e+01	0.0	2.912903e+02	4.093100e+01	0.0	2.928978e+02	4.166120e+01	0.0	2.944765e+02	4.233276e+01	0.0	2.960852e+02	4.287145e+01	0.0	2.977395e+02	4.326316e+01	0.0	2.993951e+02	4.356397e+01	0.0	3.011126e+02	4.367368e+01	0.0	3.028630e+02	4.365404e+01	0.0	3.046238e+02	4.356639e+01	0.0	3.064812e+02	4.320481e+01	0.0	3.082581e+02	4.286214e+01	0.0	3.101406e+02	4.214076e+01	0.0	3.118968e+02	4.121841e+01	0.0	3.136567e+02	4.026684e+01	0.0	3.155938e+02	3.880140e+01	0.0	3.172665e+02	3.747756e+01	0.0	3.191867e+02	3.534786e+01	0.0	3.206964e+02	3.331334e+01	0.0	3.223806e+02	3.067371e+01	0.0	3.238593e+02	2.753615e+01	0.0	3.249065e+02	2.475267e+01	0.0	3.261507e+02	2.104995e+01	0.0	3.265650e+02	1.800891e+01	0.0	3.274136e+02	1.384451e+01	0.0	3.275461e+02	9.942903e+00	0.0	3.274428e+02	6.317674e+00	0.0	3.274319e+02	2.179397e+00	0.0	3.267225e+02	-9.725008e-01	0.0	3.263697e+02	-4.756230e+00	0.0	3.252969e+02	-7.496132e+00	0.0	3.243968e+02	-1.068913e+01	0.0	3.231416e+02	-1.358857e+01	0.0	3.218331e+02	-1.563598e+01	0.0	3.207916e+02	-1.804625e+01	0.0	3.194301e+02	-1.973370e+01	0.0	3.183683e+02	-2.185739e+01	0.0	3.170343e+02	-2.347131e+01	0.0	3.159429e+02	-2.548308e+01	0.0	3.145366e+02	-2.735844e+01	0.0	3.130886e+02	-2.911000e+01	0.0	3.116713e+02	-3.113759e+01	0.0	3.100644e+02	-3.277019e+01	0.0	3.085676e+02	-3.488522e+01	0.0	3.067857e+02	-3.658513e+01	0.0	3.051049e+02	-3.881269e+01	0.0	3.030828e+02	-4.067390e+01	0.0	3.010319e+02	-4.291012e+01	0.0	2.987247e+02	-4.533463e+01	0.0	2.961557e+02	-4.724929e+01	0.0	2.935206e+02	-4.991572e+01	0.0	2.904801e+02	-5.190955e+01	0.0	2.873482e+02	-5.492422e+01	0.0	2.834593e+02	-5.742321e+01	0.0	2.795156e+02	-6.052729e+01	0.0	2.746159e+02	-6.426766e+01	0.0	2.690640e+02	-6.675335e+01	0.0	2.626819e+02	-7.122595e+01	0.0	2.543513e+02	-7.502091e+01	0.0	2.453429e+02	-7.824676e+01	0.0	2.330310e+02	-8.350281e+01	0.0	2.165738e+02	-8.761497e+01	0.0	1.945550e+02	-8.908701e+01	0.0	1.642631e+02	-8.948494e+01	0.0	1.189588e+02	-8.158356e+01	0.0	5.058753e+01	-4.661143e+01	0.0	-2.765906e+01	5.354223e+01	0.0	
SCALARS Energy double 1
LOOKUP_TABLE default
3.425217e+05	2.738531e+05	2.399760e+05	2.134874e+05	2.028737e+05	1.978346e+05	1.980289e+05	1.974525e+05	1.969559e+05	1.979770e+05	1.988377e+05	1.990884e+05	2.005292e+05	2.010568e+05	2.012007e+05	2.019230e+05	2.018417e+05	2.022616e+05	2.026649e+05	2.029530e+05	2.027411e+05	2.026165e+05	2.031738e+05	2.031457e+05	2.034258e+05	2.034015e+05	2.034995e+05	2.030971e+05	2.030651e+05	2.027688e+05	2.020890e+05	2.023588e+05	2.018375e+05	2.015978e+05	2.010949e+05	2.008554e+05	2.004453e+05	1.997702e+05	1.994200e+05	1.987057e+05	1.983991e+05	1.978111e+05	1.973467e+05	1.967765e+05	1.960362e+05	1.956605e+05	1.947651e+05	1.942888e+05	1.932706e+05	1.921468e+05	1.911826e+05	1.899537e+05	1.889594e+05	1.875527e+05	1.868225e+05	1.852062e+05	1.826125e+05	1.818181e+05	1.995363e+05	2.451327e+05	2.670524e+05	2.670535e+05	2.637727e+05	2.629318e+05	2.636307e+05	2.638302e+05	2.642538e+05	2.647884e+05	2.656440e+05	2.664319e+05	2.673083e+05	2.684393e+05	2.693739e+05	2.704934e+05	2.715135e+05	2.726799e+05	2.737182e+05	2.748393e+05	2.758745e+05	2.769624e+05	2.780064e+05	2.790948e+05	2.802373e+05	2.812414e+05	2.823892e+05	2.834270e+05	2.845863e+05	2.856530e+05	2.868197e+05	2.880316e+05	2.891768e+05	2.904957e+05	2.917450e+05	2.931294e+05	2.947607e+05	2.963045e+05	2.982786e+05	3.011392e+05	3.049660e+05	2.991228e+05	3.187512e+05	3.158117e+05	3.162191e+05	3.163160e+05	3.164198e+05	3.167307e+05	3.169107e+05	3.166804e+05	3.169310e+05	3.167871e+05	3.165420e+05	3.165003e+05	3.161106e+05	3.160009e+05	3.155598e+05	3.153686e+05	3.149504e+05	3.144571e+05	3.140919e+05	3.135184e+05	3.130952e+05	3.124502e+05	3.119448e+05	3.112629e+05	3.106853e+05	3.099682e+05	3.093274e+05	3.086060e+05	3.077596e+05	3.069889e+05	3.060104e+05	3.051178e+05	3.040812e+05	3.030555e+05	3.019594e+05	3.007917e+05	2.995987e+05	2.983180e+05	2.970335e+05	2.956990e+05	2.942703e+05	2.928954e+05	2.912966e+05	2.897247e+05	2.881401e+05	2.863784e+05	2.847908e+05	2.827860e+05	2.811526e+05	2.791418e+05	2.773622e+05	2.760633e+05	2.744599e+05	2.735115e+05	2.721015e+05	2.716418e+05	2.714898e+05	2.714312e+05	2.722612e+05	2.727925e+05	2.741085e+05	2.749934e+05	2.764211e+05	2.780563e+05	2.793539e+05	2.809563e+05	2.820716e+05	2.835025e+05	2.845051e+05	2.857290e+05	2.869465e+05	2.880054e+05	2.893110e+05	2.903299e+05	2.916970e+05	2.927413e+05	2.941377e+05	2.952592e+05	2.965359e+05	2.981082e+05	2.993465e+05	3.011184e+05	3.023793e+05	3.042875e+05	3.058736e+05	3.076093e+05	3.101958e+05	3.119179e+05	3.146693e+05	3.175911e+05	3.202169e+05	3.240434e+05	3.286778e+05	3.329327e+05	3.395934e+05	3.463711e+05	3.533849e+05	3.629841e+05	
SCALARS Pressure double 1
LOOKUP_TABLE default
1.316202e+05	9.686639e+04	7.838617e+04	6.587062e+04	6.022567e+04	5.783497e+04	5.749314e+04	5.703390e+04	5.665792e+04	5.703846e+04	5.733228e+04	5.742282e+04	5.799087e+04	5.808415e+04	5.812564e+04	5.835773e+04	5.833307e+04	5.851000e+04	5.856287e+04	5.864816e+04	5.854438e+04	5.847963e+04	5.861085e+04	5.858183e+04	5.866494e+04	5.862765e+04	5.863922e+04	5.846454e+04	5.836066e+04	5.819293e+04	5.794103e+04	5.786412e+04	5.762840e+04	5.749418e+04	5.727146e+04	5.713481e+04	5.689792e+04	5.659955e+04	5.642016e+04	5.611401e+04	5.594418e+04	5.566984e+04	5.544041e+04	5.516615e+04	5.484224e+04	5.462087e+04	5.425721e+04	5.399786e+04	5.355164e+04	5.306818e+04	5.263093e+04	5.207826e+04	5.162173e+04	5.104897e+04	5.071876e+04	5.005288e+04	4.876354e+04	4.897707e+04	5.892908e+04	8.185432e+04	9.204545e+04	9.141911e+04	8.967315e+04	8.923847e+04	8.954995e+04	8.963523e+04	8.984541e+04	9.015275e+04	9.060622e+04	9.103712e+04	9.154685e+04	9.214599e+04	9.268285e+04	9.330212e+04	9.388259e+04	9.451367e+04	9.510588e+04	9.573660e+04	9.633372e+04	9.695100e+04	9.755425e+04	9.817295e+04	9.881109e+04	9.940758e+04	1.000527e+05	1.006605e+05	1.013188e+05	1.019456e+05	1.026239e+05	1.033223e+05	1.040087e+05	1.047700e+05	1.055139e+05	1.063439e+05	1.072903e+05	1.082533e+05	1.094364e+05	1.110587e+05	1.134086e+05	1.128630e+05	1.169739e+05	1.159700e+05	1.160904e+05	1.161883e+05	1.162552e+05	1.164169e+05	1.165320e+05	1.164331e+05	1.165231e+05	1.164702e+05	1.163292e+05	1.162718e+05	1.160720e+05	1.159752e+05	1.157365e+05	1.155911e+05	1.153595e+05	1.150678e+05	1.148269e+05	1.144984e+05	1.142263e+05	1.138612e+05	1.135428e+05	1.131520e+05	1.127950e+05	1.123812e+05	1.119892e+05	1.115634e+05	1.110709e+05	1.106040e+05	1.100469e+05	1.095105e+05	1.089109e+05	1.083026e+05	1.076636e+05	1.069890e+05	1.062979e+05	1.055655e+05	1.048251e+05	1.040574e+05	1.032435e+05	1.024444e+05	1.015472e+05	1.006523e+05	9.976227e+04	9.878610e+04	9.787299e+04	9.678728e+04	9.585078e+04	9.477515e+04	9.378786e+04	9.304633e+04	9.220045e+04	9.164206e+04	9.094981e+04	9.065805e+04	9.058719e+04	9.058182e+04	9.098178e+04	9.131489e+04	9.197188e+04	9.250390e+04	9.326508e+04	9.415783e+04	9.489693e+04	9.574216e+04	9.639567e+04	9.715656e+04	9.774838e+04	9.841039e+04	9.909971e+04	9.971794e+04	1.004396e+05	1.010496e+05	1.017983e+05	1.024290e+05	1.031990e+05	1.038774e+05	1.046189e+05	1.055092e+05	1.062746e+05	1.072670e+05	1.080703e+05	1.091450e+05	1.101405e+05	1.111846e+05	1.126558e+05	1.138058e+05	1.154094e+05	1.172158e+05	1.189170e+05	1.212619e+05	1.241523e+05	1.271298e+05	1.313257e+05	1.359289e+05	1.407726e+05	1.447593e+05	
SCALARS Temperature double 1
LOOKUP_TABLE default
2.935982e+02	2.763548e+02	2.604098e+02	2.493847e+02	2.421035e+02	2.392494e+02	2.379725e+02	2.370324e+02	2.362800e+02	2.365595e+02	2.367066e+02	2.367650e+02	2.372491e+02	2.370614e+02	2.370612e+02	2.371350e+02	2.371313e+02	2.373062e+02	2.371058e+02	2.371123e+02	2.369786e+02	2.368882e+02	2.367953e+02	2.367297e+02	2.367370e+02	2.366421e+02	2.365900e+02	2.364056e+02	2.361082e+02	2.358483e+02	2.356687e+02	2.351815e+02	2.349067e+02	2.346979e+02	2.344453e+02	2.342269e+02	2.338422e+02	2.334992e+02	2.332410e+02	2.329043e+02	2.326344e+02	2.322811e+02	2.319588e+02	2.315849e+02	2.312017e+02	2.308179e+02	2.304403e+02	2.300183e+02	2.294710e+02	2.288898e+02	2.283087e+02	2.275742e+02	2.269396e+02	2.262834e+02	2.258233e+02	2.250204e+02	2.229031e+02	2.244427e+02	2.411385e+02	2.647588e+02	2.710995e+02	2.697245e+02	2.683359e+02	2.680024e+02	2.681684e+02	2.682076e+02	2.683553e+02	2.686345e+02	2.689937e+02	2.693515e+02	2.698134e+02	2.702762e+02	2.707460e+02	2.712523e+02	2.717443e+02	2.722318e+02	2.727265e+02	2.732373e+02	2.737358e+02	2.742335e+02	2.747295e+02	2.752209e+02	2.757086e+02	2.762066e+02	2.766958e+02	2.771840e+02	2.776828e+02	2.781798e+02	2.787040e+02	2.792311e+02	2.797767e+02	2.803414e+02	2.809153e+02	2.815556e+02	2.822399e+02	2.830088e+02	2.838862e+02	2.849614e+02	2.866950e+02	2.897400e+02	2.839329e+02	2.840670e+02	2.840146e+02	2.841261e+02	2.841776e+02	2.842624e+02	2.843496e+02	2.843242e+02	2.843205e+02	2.843205e+02	2.842295e+02	2.841544e+02	2.840530e+02	2.839518e+02	2.838140e+02	2.836790e+02	2.835379e+02	2.833380e+02	2.831443e+02	2.829292e+02	2.827161e+02	2.824803e+02	2.822358e+02	2.819752e+02	2.817059e+02	2.814238e+02	2.811297e+02	2.808254e+02	2.804795e+02	2.801284e+02	2.797459e+02	2.793418e+02	2.789131e+02	2.784569e+02	2.779865e+02	2.774927e+02	2.769800e+02	2.764428e+02	2.758870e+02	2.753067e+02	2.746943e+02	2.740672e+02	2.733929e+02	2.726959e+02	2.720089e+02	2.712619e+02	2.705109e+02	2.696882e+02	2.688993e+02	2.680764e+02	2.672615e+02	2.666141e+02	2.659551e+02	2.654352e+02	2.649556e+02	2.646534e+02	2.646093e+02	2.646404e+02	2.649089e+02	2.652475e+02	2.657161e+02	2.662228e+02	2.668242e+02	2.675487e+02	2.681814e+02	2.688119e+02	2.693819e+02	2.699450e+02	2.704565e+02	2.709514e+02	2.715016e+02	2.720136e+02	2.725571e+02	2.730711e+02	2.736153e+02	2.741434e+02	2.746984e+02	2.752572e+02	2.758274e+02	2.764774e+02	2.771074e+02	2.778019e+02	2.784747e+02	2.792148e+02	2.800130e+02	2.807912e+02	2.817767e+02	2.827326e+02	2.838131e+02	2.851209e+02	2.864087e+02	2.880087e+02	2.899738e+02	2.922602e+02	2.949461e+02	2.980806e+02	3.012949e+02	3.015376e+02	
SCALARS Mach double 1
LOOKUP_TABLE default
3.823787e-01	6.836060e-01	8.955911e-01	1.028877e+00	1.113912e+00	1.146843e+00	1.161521e+00	1.172312e+00	1.180937e+00	1.177734e+00	1.176048e+00	1.175379e+00	1.169826e+00	1.171979e+00	1.171981e+00	1.171135e+00	1.171177e+00	1.169171e+00	1.171469e+00	1.171395e+00	1.172928e+00	1.173965e+00	1.175031e+00	1.175783e+00	1.175699e+00	1.176787e+00	1.177385e+00	1.179498e+00	1.182905e+00	1.185883e+00	1.187939e+00	1.193517e+00	1.196660e+00	1.199050e+00	1.201938e+00	1.204435e+00	1.208832e+00	1.212752e+00	1.215702e+00	1.219547e+00	1.222629e+00	1.226663e+00	1.230341e+00	1.234607e+00	1.238979e+00	1.243357e+00	1.247662e+00	1.252474e+00	1.258713e+00	1.265337e+00	1.271958e+00	1.280327e+00	1.287557e+00	1.295033e+00	1.300274e+00	1.309422e+00	1.333554e+00	1.316006e+00	1.125066e+00	8.406997e-01	7.571658e-01	7.757019e-01	7.941661e-01	7.985653e-01	7.963774e-01	7.958603e-01	7.939100e-01	7.902157e-01	7.854497e-01	7.806859e-01	7.745107e-01	7.682961e-01	7.619567e-01	7.550900e-01	7.483831e-01	7.417009e-01	7.348825e-01	7.278016e-01	7.208508e-01	7.138687e-01	7.068665e-01	6.998867e-01	6.929145e-01	6.857476e-01	6.786593e-01	6.715356e-01	6.642063e-01	6.568466e-01	6.490243e-01	6.410915e-01	6.328086e-01	6.241538e-01	6.152709e-01	6.052492e-01	5.944024e-01	5.820409e-01	5.676885e-01	5.497167e-01	5.197384e-01	4.634010e-01	5.669164e-01	5.646969e-01	5.655649e-01	5.637167e-01	5.628619e-01	5.614505e-01	5.599964e-01	5.604203e-01	5.604820e-01	5.604818e-01	5.619978e-01	5.632475e-01	5.649291e-01	5.666051e-01	5.688792e-01	5.711030e-01	5.734178e-01	5.766873e-01	5.798418e-01	5.833296e-01	5.867693e-01	5.905584e-01	5.944688e-01	5.986160e-01	6.028786e-01	6.073206e-01	6.119283e-01	6.166674e-01	6.220243e-01	6.274286e-01	6.332775e-01	6.394165e-01	6.458856e-01	6.527194e-01	6.597149e-01	6.670060e-01	6.745186e-01	6.823316e-01	6.903525e-01	6.986627e-01	7.073648e-01	7.162057e-01	7.256369e-01	7.353051e-01	7.447604e-01	7.549594e-01	7.651325e-01	7.761878e-01	7.867045e-01	7.975910e-01	8.082921e-01	8.167396e-01	8.252909e-01	8.320055e-01	8.381748e-01	8.420499e-01	8.426147e-01	8.422172e-01	8.387746e-01	8.344223e-01	8.283820e-01	8.218237e-01	8.140039e-01	8.045300e-01	7.962064e-01	7.878635e-01	7.802800e-01	7.727468e-01	7.658665e-01	7.591755e-01	7.516964e-01	7.446963e-01	7.372215e-01	7.301097e-01	7.225342e-01	7.151357e-01	7.073075e-01	6.993692e-01	6.912097e-01	6.818298e-01	6.726570e-01	6.624478e-01	6.524540e-01	6.413376e-01	6.291977e-01	6.171983e-01	6.017608e-01	5.865032e-01	5.688942e-01	5.470122e-01	5.247811e-01	4.960726e-01	4.588434e-01	4.120358e-01	3.502788e-01	2.623502e-01	1.214531e-01	1.035156e-01	
SCALARS Pressure_Coefficient double 1
LOOKUP_TABLE default