# vtk DataFile Version 3.0
vtk output
ASCII
DATASET UNSTRUCTURED_GRID
POINTS 698 double
0.000000e+00	0.000000e+00	0.0	1.488382e-03	4.706598e-03	0.0	4.561434e-03	8.535421e-03	0.0	8.372391e-03	1.157825e-02	0.0	1.249391e-02	1.409553e-02	0.0	1.674474e-02	1.628303e-02	0.0	2.106017e-02	1.822913e-02	0.0	2.542977e-02	1.991367e-02	0.0	2.977477e-02	2.152574e-02	0.0	3.413705e-02	2.294377e-02	0.0	3.845894e-02	2.433304e-02	0.0	4.277967e-02	2.556822e-02	0.0	4.705696e-02	2.679098e-02	0.0	5.131743e-02	2.790617e-02	0.0	5.554324e-02	2.898311e-02	0.0	5.973186e-02	3.003265e-02	0.0	6.390049e-02	3.098720e-02	0.0	6.802919e-02	3.193260e-02	0.0	7.212326e-02	3.284823e-02	0.0	7.619306e-02	3.369016e-02	0.0	8.022500e-02	3.452424e-02	0.0	8.421980e-02	3.535065e-02	0.0	8.819250e-02	3.609681e-02	0.0	9.212947e-02	3.683539e-02	0.0	9.603123e-02	3.756736e-02	0.0	9.990289e-02	3.826789e-02	0.0	1.037476e-01	3.892331e-02	0.0	1.075588e-01	3.957303e-02	0.0	1.113373e-01	4.021717e-02	0.0	1.150875e-01	4.083199e-02	0.0	1.188113e-01	4.140953e-02	0.0	1.225040e-01	4.198224e-02	0.0	1.261662e-01	4.255022e-02	0.0	1.297989e-01	4.310976e-02	0.0	1.334090e-01	4.361876e-02	0.0	1.369902e-01	4.412366e-02	0.0	1.405428e-01	4.462456e-02	0.0	1.440675e-01	4.512152e-02	0.0	1.475667e-01	4.560013e-02	0.0	1.510431e-01	4.604450e-02	0.0	1.544929e-01	4.648548e-02	0.0	1.579166e-01	4.692312e-02	0.0	1.613147e-01	4.735749e-02	0.0	1.646883e-01	4.778294e-02	0.0	1.680414e-01	4.817001e-02	0.0	1.713703e-01	4.855427e-02	0.0	1.746752e-01	4.893577e-02	0.0	1.779566e-01	4.931456e-02	0.0	1.812149e-01	4.969068e-02	0.0	1.844526e-01	5.004547e-02	0.0	1.876699e-01	5.037989e-02	0.0	1.908653e-01	5.071202e-02	0.0	1.940391e-01	5.104192e-02	0.0	1.971916e-01	5.136961e-02	0.0	2.003234e-01	5.169513e-02	0.0	2.034360e-01	5.200472e-02	0.0	2.065303e-01	5.229280e-02	0.0	2.096049e-01	5.257903e-02	0.0	2.126599e-01	5.286345e-02	0.0	2.156958e-01	5.314608e-02	0.0	2.187129e-01	5.342696e-02	0.0	2.217115e-01	5.370612e-02	0.0	2.246940e-01	5.395829e-02	0.0	2.276592e-01	5.420384e-02	0.0	2.306067e-01	5.444792e-02	0.0	2.335369e-01	5.469057e-02	0.0	2.364501e-01	5.493182e-02	0.0	2.393465e-01	5.517167e-02	0.0	2.422265e-01	5.541017e-02	0.0	2.450919e-01	5.562616e-02	0.0	2.479420e-01	5.583384e-02	0.0	2.507765e-01	5.604039e-02	0.0	2.535956e-01	5.624582e-02	0.0	2.563995e-01	5.645014e-02	0.0	2.591886e-01	5.665338e-02	0.0	2.619630e-01	5.685556e-02	0.0	2.647234e-01	5.705268e-02	0.0	2.674711e-01	5.722667e-02	0.0	2.702049e-01	5.739978e-02	0.0	2.729251e-01	5.757202e-02	0.0	2.756318e-01	5.774342e-02	0.0	2.783253e-01	5.791397e-02	0.0	2.810059e-01	5.808371e-02	0.0	2.836737e-01	5.825264e-02	0.0	2.863290e-01	5.841979e-02	0.0	2.889733e-01	5.856299e-02	0.0	2.916055e-01	5.870554e-02	0.0	2.942258e-01	5.884744e-02	0.0	2.968344e-01	5.898871e-02	0.0	2.994315e-01	5.912935e-02	0.0	3.020173e-01	5.926938e-02	0.0	3.045920e-01	5.940881e-02	0.0	3.071558e-01	5.954765e-02	0.0	3.097093e-01	5.967634e-02	0.0	3.122530e-01	5.979087e-02	0.0	3.147863e-01	5.990494e-02	0.0	3.173094e-01	6.001855e-02	0.0	3.198226e-01	6.013172e-02	0.0	3.223259e-01	6.024444e-02	0.0	3.248197e-01	6.035672e-02	0.0	3.273039e-01	6.046858e-02	0.0	3.297789e-01	6.058003e-02	0.0	3.322451e-01	6.068479e-02	0.0	3.347029e-01	6.077307e-02	0.0	3.371519e-01	6.086103e-02	0.0	3.395924e-01	6.094869e-02	0.0	3.420243e-01	6.103604e-02	0.0	3.444480e-01	6.112309e-02	0.0	3.468636e-01	6.120986e-02	0.0	3.492711e-01	6.129633e-02	0.0	3.516709e-01	6.138252e-02	0.0	3.540629e-01	6.146844e-02	0.0	3.564479e-01	6.153975e-02	0.0	3.588257e-01	6.160369e-02	0.0	3.611964e-01	6.166744e-02	0.0	3.635599e-01	6.173099e-02	0.0	3.659165e-01	6.179436e-02	0.0	3.682662e-01	6.185755e-02	0.0	3.706094e-01	6.192055e-02	0.0	3.729460e-01	6.198338e-02	0.0	3.752763e-01	6.204605e-02	0.0	3.776003e-01	6.210854e-02	0.0	3.799185e-01	6.215823e-02	0.0	3.822309e-01	6.219966e-02	0.0	3.845375e-01	6.224099e-02	0.0	3.868383e-01	6.228221e-02	0.0	3.891337e-01	6.232333e-02	0.0	3.914235e-01	6.236436e-02	0.0	3.937081e-01	6.240529e-02	0.0	3.959875e-01	6.244613e-02	0.0	3.982618e-01	6.248687e-02	0.0	4.005312e-01	6.252753e-02	0.0	4.027958e-01	6.256506e-02	0.0	4.050559e-01	6.258534e-02	0.0	4.073116e-01	6.260558e-02	0.0	4.095627e-01	6.262579e-02	0.0	4.118096e-01	6.264595e-02	0.0	4.140522e-01	6.266608e-02	0.0	4.162908e-01	6.268617e-02	0.0	4.185254e-01	6.270622e-02	0.0	4.207562e-01	6.272624e-02	0.0	4.229832e-01	6.274623e-02	0.0	4.252067e-01	6.276618e-02	0.0	4.274266e-01	6.277884e-02	0.0	4.296433e-01	6.277838e-02	0.0	4.318567e-01	6.277793e-02	0.0	4.340669e-01	6.277747e-02	0.0	4.362741e-01	6.277702e-02	0.0	4.384783e-01	6.277657e-02	0.0	4.406798e-01	6.277612e-02	0.0	4.428785e-01	6.277567e-02	0.0	4.450746e-01	6.277521e-02	0.0	4.472683e-01	6.277476e-02	0.0	4.494595e-01	6.277431e-02	0.0	4.516485e-01	6.276745e-02	0.0	4.538352e-01	6.274564e-02	0.0	4.560199e-01	6.272386e-02	0.0	4.582027e-01	6.270210e-02	0.0	4.603836e-01	6.268036e-02	0.0	4.625627e-01	6.265864e-02	0.0	4.647403e-01	6.263693e-02	0.0	4.669163e-01	6.261524e-02	0.0	4.690909e-01	6.259356e-02	0.0	4.712642e-01	6.257189e-02	0.0	4.734363e-01	6.255023e-02	0.0	4.756073e-01	6.252711e-02	0.0	4.777770e-01	6.248281e-02	0.0	4.799458e-01	6.243852e-02	0.0	4.821138e-01	6.239425e-02	0.0	4.842811e-01	6.234999e-02	0.0	4.864479e-01	6.230574e-02	0.0	4.886142e-01	6.226151e-02	0.0	4.907801e-01	6.221728e-02	0.0	4.929458e-01	6.217305e-02	0.0	4.951113e-01	6.212883e-02	0.0	4.972768e-01	6.208461e-02	0.0	4.994423e-01	6.204039e-02	0.0	5.016075e-01	6.197822e-02	0.0	5.037728e-01	6.190982e-02	0.0	5.059385e-01	6.184141e-02	0.0	5.081046e-01	6.177299e-02	0.0	5.102713e-01	6.170454e-02	0.0	5.124387e-01	6.163608e-02	0.0	5.146069e-01	6.156759e-02	0.0	5.167759e-01	6.149907e-02	0.0	5.189459e-01	6.143052e-02	0.0	5.211171e-01	6.136194e-02	0.0	5.232894e-01	6.129332e-02	0.0	5.254626e-01	6.121378e-02	0.0	5.276367e-01	6.111962e-02	0.0	5.298123e-01	6.102540e-02	0.0	5.319896e-01	6.093110e-02	0.0	5.341685e-01	6.083673e-02	0.0	5.363493e-01	6.074228e-02	0.0	5.385321e-01	6.064775e-02	0.0	5.407169e-01	6.055313e-02	0.0	5.429038e-01	6.045841e-02	0.0	5.450930e-01	6.036360e-02	0.0	5.472846e-01	6.026868e-02	0.0	5.494784e-01	6.016800e-02	0.0	5.516738e-01	6.004641e-02	0.0	5.538719e-01	5.992466e-02	0.0	5.560728e-01	5.980276e-02	0.0	5.582766e-01	5.968070e-02	0.0	5.604834e-01	5.955847e-02	0.0	5.626934e-01	5.943607e-02	0.0	5.649067e-01	5.931348e-02	0.0	5.671233e-01	5.919071e-02	0.0	5.693434e-01	5.906774e-02	0.0	5.715671e-01	5.894458e-02	0.0	5.737943e-01	5.881612e-02	0.0	5.760239e-01	5.866609e-02	0.0	5.782575e-01	5.851580e-02	0.0	5.804952e-01	5.836523e-02	0.0	5.827371e-01	5.821438e-02	0.0	5.849833e-01	5.806324e-02	0.0	5.872339e-01	5.791180e-02	0.0	5.894890e-01	5.776006e-02	0.0	5.917489e-01	5.760800e-02	0.0	5.940135e-01	5.745562e-02	0.0	5.962831e-01	5.730291e-02	0.0	5.985569e-01	5.713881e-02	0.0	6.008348e-01	5.696053e-02	0.0	6.031181e-01	5.678184e-02	0.0	6.054067e-01	5.660272e-02	0.0	6.077010e-01	5.642317e-02	0.0	6.100009e-01	5.624317e-02	0.0	6.123066e-01	5.606272e-02	0.0	6.146183e-01	5.588180e-02	0.0	6.169361e-01	5.570040e-02	0.0	6.192601e-01	5.551852e-02	0.0	6.215903e-01	5.533515e-02	0.0	6.239252e-01	5.512922e-02	0.0	6.262668e-01	5.492271e-02	0.0	6.286151e-01	5.471560e-02	0.0	6.309704e-01	5.450788e-02	0.0	6.333326e-01	5.429953e-02	0.0	6.357021e-01	5.409055e-02	0.0	6.380790e-01	5.388093e-02	0.0	6.404633e-01	5.367064e-02	0.0	6.428553e-01	5.345967e-02	0.0	6.452550e-01	5.324701e-02	0.0	6.476608e-01	5.301318e-02	0.0	6.500747e-01	5.277856e-02	0.0	6.524968e-01	5.254313e-02	0.0	6.549274e-01	5.230689e-02	0.0	6.573665e-01	5.206981e-02	0.0	6.598144e-01	5.183188e-02	0.0	6.622712e-01	5.159308e-02	0.0	6.647370e-01	5.135341e-02	0.0	6.672122e-01	5.111283e-02	0.0	6.696957e-01	5.086093e-02	0.0	6.721877e-01	5.059776e-02	0.0	6.746895e-01	5.033356e-02	0.0	6.772012e-01	5.006831e-02	0.0	6.797231e-01	4.980200e-02	0.0	6.822552e-01	4.953459e-02	0.0	6.847979e-01	4.926608e-02	0.0	6.873512e-01	4.899644e-02	0.0	6.899154e-01	4.872565e-02	0.0	6.924897e-01	4.844476e-02	0.0	6.950740e-01	4.815150e-02	0.0	6.976698e-01	4.785693e-02	0.0	7.002772e-01	4.756105e-02	0.0	7.028964e-01	4.726382e-02	0.0	7.055278e-01	4.696522e-02	0.0	7.081714e-01	4.666523e-02	0.0	7.108274e-01	4.636382e-02	0.0	7.134962e-01	4.606097e-02	0.0	7.161759e-01	4.573889e-02	0.0	7.188684e-01	4.541314e-02	0.0	7.215742e-01	4.508577e-02	0.0	7.242937e-01	4.475675e-02	0.0	7.270270e-01	4.442606e-02	0.0	7.297744e-01	4.409367e-02	0.0	7.325360e-01	4.375955e-02	0.0	7.353123e-01	4.342367e-02	0.0	7.381012e-01	4.306908e-02	0.0	7.409048e-01	4.270984e-02	0.0	7.437237e-01	4.234865e-02	0.0	7.465582e-01	4.198546e-02	0.0	7.494085e-01	4.162024e-02	0.0	7.522749e-01	4.125297e-02	0.0	7.551577e-01	4.088359e-02	0.0	7.580563e-01	4.050553e-02	0.0	7.609702e-01	4.011287e-02	0.0	7.639013e-01	3.971789e-02	0.0	7.668499e-01	3.932055e-02	0.0	7.698164e-01	3.892081e-02	0.0	7.728009e-01	3.851863e-02	0.0	7.758039e-01	3.811397e-02	0.0	7.788247e-01	3.770036e-02	0.0	7.818629e-01	3.727185e-02	0.0	7.849205e-01	3.684060e-02	0.0	7.879978e-01	3.640657e-02	0.0	7.910951e-01	3.596972e-02	0.0	7.942129e-01	3.552999e-02	0.0	7.973514e-01	3.508733e-02	0.0	8.005088e-01	3.462657e-02	0.0	8.036873e-01	3.415983e-02	0.0	8.068876e-01	3.368987e-02	0.0	8.101102e-01	3.321666e-02	0.0	8.133553e-01	3.274013e-02	0.0	8.166235e-01	3.226022e-02	0.0	8.199129e-01	3.176252e-02	0.0	8.232257e-01	3.125817e-02	0.0	8.265626e-01	3.075014e-02	0.0	8.299243e-01	3.023835e-02	0.0	8.333110e-01	2.972274e-02	0.0	8.367225e-01	2.919873e-02	0.0	8.401582e-01	2.865885e-02	0.0	8.436204e-01	2.811481e-02	0.0	8.471094e-01	2.756654e-02	0.0	8.506258e-01	2.701397e-02	0.0	8.541697e-01	2.645426e-02	0.0	8.577399e-01	2.587685e-02	0.0	8.613389e-01	2.529477e-02	0.0	8.649674e-01	2.470793e-02	0.0	8.686258e-01	2.411624e-02	0.0	8.723134e-01	2.351163e-02	0.0	8.760307e-01	2.289382e-02	0.0	8.797796e-01	2.227075e-02	0.0	8.835608e-01	2.164233e-02	0.0	8.873741e-01	2.100489e-02	0.0	8.912188e-01	2.034972e-02	0.0	8.950976e-01	1.968875e-02	0.0	8.990110e-01	1.902187e-02	0.0	9.029588e-01	1.834348e-02	0.0	9.069407e-01	1.764831e-02	0.0	9.109593e-01	1.694674e-02	0.0	9.150153e-01
[...]
POINT_DATA 698

SCALARS Density double 1
LOOKUP_TABLE default
1.577231e+00	1.238244e+00	1.051760e+00	9.251342e-01	8.743688e-01	8.545952e-01	8.357942e-01	8.300939e-01	8.302743e-01	8.329896e-01	8.335267e-01	8.324681e-01	8.366184e-01	8.351514e-01	8.435064e-01	8.404770e-01	8.397070e-01	8.481184e-01	8.443011e-01	8.437980e-01	8.538475e-01	8.496553e-01	8.437710e-01	8.520624e-01	8.556891e-01	8.498233e-01	8.485156e-01	8.562748e-01	8.576388e-01	8.511557e-01	8.498839e-01	8.561257e-01	8.604777e-01	8.532751e-01	8.477436e-01	8.536980e-01	8.593678e-01	8.594311e-01	8.522767e-01	8.486276e-01	8.543306e-01	8.593851e-01	8.606514e-01	8.536878e-01	8.477424e-01	8.514688e-01	8.562648e-01	8.595722e-01	8.568866e-01	8.499236e-01	8.474718e-01	8.508447e-01	8.549139e-01	8.573889e-01	8.556370e-01	8.482798e-01	8.451156e-01	8.475939e-01	8.507597e-01	8.536311e-01	8.555135e-01	8.503417e-01	8.431766e-01	8.430636e-01	8.458928e-01	8.486290e-01	8.511940e-01	8.527645e-01	8.479856e-01	8.412518e-01	8.408545e-01	8.430354e-01	8.451498e-01	8.471479e-01	8.494695e-01	8.492606e-01	8.421376e-01	8.367051e-01	8.379664e-01	8.403919e-01	8.422859e-01	8.442748e-01	8.465203e-01	8.472123e-01	8.400337e-01	8.339817e-01	8.351443e-01	8.373722e-01	8.385861e-01	8.401049e-01	8.423470e-01	8.439347e-01	8.415604e-01	8.350104e-01	8.310185e-01	8.322508e-01	8.342573e-01	8.356612e-01	8.369395e-01	8.385155e-01	8.397973e-01	8.381626e-01	8.315219e-01	8.270556e-01	8.283280e-01	8.301573e-01	8.312992e-01	8.323929e-01	8.334222e-01	8.347927e-01	8.360816e-01	8.311930e-01	8.241613e-01	8.224922e-01	8.241151e-01	8.259903e-01	8.272734e-01	8.283201e-01	8.295321e-01	8.309667e-01	8.318206e-01	8.278083e-01	8.208260e-01	8.184530e-01	8.197979e-01	8.210634e-01	8.221443e-01	8.232482e-01	8.242586e-01	8.253660e-01	8.265685e-01	8.261936e-01	8.188792e-01	8.134096e-01	8.137370e-01	8.158853e-01	8.168688e-01	8.175987e-01	8.183591e-01	8.191723e-01	8.203441e-01	8.214187e-01	8.186374e-01	8.112858e-01	8.074199e-01	8.087519e-01	8.100467e-01	8.105257e-01	8.113131e-01	8.123180e-01	8.132584e-01	8.143927e-01	8.152886e-01	8.130362e-01	8.057623e-01	8.010592e-01	8.021058e-01	8.030443e-01	8.039855e-01	8.050529e-01	8.059146e-01	8.066927e-01	8.076301e-01	8.086948e-01	8.086041e-01	8.010931e-01	7.934310e-01	7.936525e-01	7.952718e-01	7.964177e-01	7.972309e-01	7.981378e-01	7.990614e-01	8.000724e-01	8.011455e-01	8.018746e-01	7.958014e-01	7.876348e-01	7.856300e-01	7.867015e-01	7.878032e-01	7.887558e-01	7.895019e-01	7.902649e-01	7.910228e-01	7.919997e-01	7.926440e-01	7.894137e-01	7.805620e-01	7.759163e-01	7.772543e-01	7.783677e-01	7.790564e-01	7.796385e-01	7.804885e-01	7.813435e-01	7.824577e-01	7.836562e-01	7.819761e-01	7.733561e-01	7.657168e-01	7.663649e-01	7.680560e-01	7.693089e-01	7.700770e-01	7.708274e-01	7.716916e-01	7.726108e-01	7.736783e-01	7.725118e-01	7.638407e-01	7.571539e-01	7.575432e-01	7.587413e-01	7.597374e-01	7.608764e-01	7.616567e-01	7.623078e-01	7.632228e-01	7.641482e-01	7.608358e-01	7.528714e-01	7.487301e-01	7.493634e-01	7.509958e-01	7.520599e-01	7.525872e-01	7.536258e-01	7.544551e-01	7.547011e-01	7.582895e-01	8.487013e-01	1.087097e+00	1.178894e+00	1.179453e+00	1.172814e+00	1.174931e+00	1.174591e+00	1.173057e+00	1.170470e+00	1.167774e+00	1.163126e+00	1.163303e+00	1.166287e+00	1.165982e+00	1.165058e+00	1.164126e+00	1.162768e+00	1.161249e+00	1.159037e+00	1.156198e+00	1.154450e+00	1.156146e+00	1.158279e+00	1.158610e+00	1.158254e+00	1.157791e+00	1.156763e+00	1.155530e+00	1.153292e+00	1.152032e+00	1.154481e+00	1.156791e+00	1.157634e+00	1.157845e+00	1.157928e+00	1.157296e+00	1.156312e+00	1.154256e+00	1.155050e+00	1.159112e+00	1.160728e+00	1.161254e+00	1.161767e+00	1.161815e+00	1.161374e+00	1.159756e+00	1.160861e+00	1.164612e+00	1.166656e+00	1.167676e+00	1.168268e+00	1.168414e+00	1.168074e+00	1.167758e+00	1.170547e+00	1.173737e+00	1.175239e+00	1.175974e+00	1.176624e+00	1.176519e+00	1.176858e+00	1.179482e+00	1.182922e+00	1.184388e+00	1.185080e+00	1.186118e+00	1.185863e+00	1.187699e+00	1.191354e+00	1.193603e+00	1.194774e+00	1.195814e+00	1.196132e+00	1.197937e+00	1.201436e+00	1.203821e+00	1.205054e+00	1.206342e+00	1.207106e+00	1.209761e+00	1.213066e+00	1.214832e+00	1.216274e+00	1.217158e+00	1.219949e+00	1.223339e+00	1.225204e+00	1.226584e+00	1.228230e+00	1.231472e+00	1.234435e+00	1.236339e+00	1.237915e+00	1.240837e+00	1.244226e+00	1.246289e+00	1.248470e+00	1.251634e+00	1.255245e+00	1.257429e+00	1.260198e+00	1.264329e+00	1.267013e+00	1.269938e+00	1.274131e+00	1.277728e+00	1.281263e+00	1.285831e+00	1.289971e+00	1.294734e+00	1.299620e+00	1.305012e+00	1.311128e+00	1.317722e+00	1.325849e+00	1.334269e+00	1.346114e+00	1.365019e+00	1.351237e+00	1.451972e+00	1.422584e+00	1.423433e+00	1.423504e+00	1.425382e+00	1.425913e+00	1.426699e+00	1.426801e+00	1.427247e+00	1.427754e+00	1.426253e+00	1.427474e+00	1.425770e+00	1.425597e+00	1.426268e+00	1.423885e+00	1.423654e+00	1.424505e+00	1.422406e+00	1.420408e+00	1.422014e+00	1.421479e+00	1.418103e+00	1.417496e+00	1.418383e+00	1.417526e+00	1.414550e+00	1.413119e+00	1.414568e+00	1.413947e+00	1.410734e+00	1.409215e+00	1.408890e+00	1.409573e+00	1.407980e+00	1.405520e+00	1.404010e+00	1.403605e+00	1.404407e+00	1.402815e+00	1.400435e+00	1.398864e+00	1.397591e+00	1.398646e+00	1.398247e+00	1.395590e+00	1.393957e+00	1.392374e+00	1.391355e+00	1.392385e+00	1.391897e+00	1.389266e+00	1.387635e+00	1.386103e+00	1.384979e+00	1.384979e+00	1.385319e+00	1.383703e+00	1.381543e+00	1.380016e+00	1.378685e+00	1.377629e+00	1.377570e+00	1.377637e+00	1.376078e+00	1.373958e+00	1.372343e+00	1.371023e+00	1.369849e+00	1.368911e+00	1.369468e+00	1.368653e+00	1.366257e+00	1.364689e+00	1.363125e+00	1.361902e+00	1.360719e+00	1.359685e+00	1.359725e+00	1.358892e+00	1.356849e+00	1.355349e+00	1.353896e+00	1.352626e+00	1.351456e+00	1.350325e+00	1.349562e+00	1.348900e+00	1.347583e+00	1.345996e+00	1.344603e+00	1.343300e+00	1.342051e+00	1.340864e+00	1.339700e+00	1.338618e+00	1.337642e+00	1.336426e+00	1.335099e+00	1.333871e+00	1.332626e+00	1.331411e+00	1.330187e+00	1.328967e+00	1.327732e+00	1.326247e+00	1.324934e+00	1.323910e+00	1.322872e+00	1.321778e+00	1.320618e+00	1.319438e+00	1.318179e+00	1.316928e+00	1.315583e+00	1.313621e+00	1.311982e+00	1.311244e+00	1.310471e+00	1.309552e+00	1.308496e+00	1.307319e+00	1.306066e+00	1.304747e+00	1.303351e+00	1.301510e+00	1.298892e+00	1.297643e+00	1.297549e+00	1.296821e+00	1.296017e+00	1.294942e+00	1.293744e+00	1.292397e+00	1.290997e+00	1.289441e+00	1.286765e+00	1.283681e+00	1.282933e+00	1.283135e+00	1.282699e+00	1.281988e+00	1.280966e+00	1.279743e+00	1.278303e+00	1.276752e+00	1.275096e+00	1.272060e+00	1.267691e+00	1.266965e+00	1.267769e+00	1.267818e+00	1.267343e+00	1.266513e+00	1.265346e+00	1.263907e+00	1.262241e+00	1.260583e+00	1.257838e+00	1.251167e+00	1.248708e+00	1.251346e+00	1.252057e+00	1.252156e+00	1.251575e+00	1.250547e+00	1.249154e+00	1.247443e+00	1.245725e+00	1.243215e+00	1.236720e+00	1.231159e+00	1.232862e+00	1.235298e+00	1.236286e+00	1.236356e+00	1.235716e+00	1.234636e+00	1.233039e+00	1.231163e+00	1.229009e+00	1.223506e+00	1.214687e+00	1.213284e+00	1.218521e+00	1.220691e+00	1.221744e+00	1.221699e+00	1.221013e+00	1.219656e+00	1.218078e+00	1.216439e+00	1.211860e+00	1.200150e+00	1.196239e+00	1.203023e+00	1.206673e+00	1.208962e+00	1.209662e+00	1.209518e+00	1.208454e+00	1.207072e+00	1.205755e+00	1.201196e+00	1.189296e+00	1.184527e+00	1.191166e+00	1.196436e+00	1.199394e+00	1.200978e+00	1.201259e+00	1.200606e+00	1.199734e+00	1.199032e+00	1.193793e+00	1.178919e+00	1.176415e+00	1.186443e+00	1.191737e+00	1.195551e+00	1.197284e+00	1.197719e+00	1.197381e+00	1.196916e+00	1.194373e+00	1.185035e+00	1.177004e+00	1.181742e+00	1.189775e+00	1.194641e+00	1.197669e+00	1.199064e+00	1.199626e+00	1.199773e+00	1.198393e+00	1.190417e+00	1.182896e+00	1.186867e+00	1.195209e+00	1.200258e+00	1.203602e+00	1.205332e+00	1.206231e+00	1.207214e+00	1.205241e+00	1.195888e+00	1.193291e+00	1.201027e+00	1.207238e+00	1.211626e+00	1.214124e+00	1.215781e+00	1.217163e+00	1.216665e+00	1.210462e+00	1.208129e+00	1.213717e+00	1.219525e+00	1.223518e+00	1.226046e+00	1.227793e+00	1.229235e+00	1.228355e+00	1.222796e+00	1.223149e+00	1.230257e+00	1.234333e+00	1.237387e+00	1.239321e+00	1.241079e+00	1.241220e+00	1.236545e+00	1.236830e+00	1.242449e+00	1.246160e+00	1.249126e+00	1.251057e+00	1.252391e+00	1.251173e+00	1.248500e+00	1.250552e+00	1.255741e+00	1.258881e+00	1.261264e+00	1.262923e+00	1.262441e+00	1.259520e+00	1.261603e+00	1.266635e+00	1.269725e+00	1.272390e+00	1.273661e+00	1.271444e+00	1.270690e+00	1.274710e+00	1.278832e+00	1.281841e+00	1.283787e+00	1.282428e+00	1.281364e+00	1.285196e+00	1.289733e+00	1.293127e+00	1.295004e+00	1.292187e+00	1.293028e+00	1.298834e+00	1.302911e+00	1.305737e+00	1.304241e+00	1.304492e+00	1.309771e+00	1.314661e+00	1.317979e+00	1.315520e+00	1.317282e+00	1.324335e+00	1.328647e+00	1.328834e+00	1.329418e+00	1.335429e+00	1.341236e+00	1.341819e+00	1.343196e+00	1.350359e+00	1.356583e+00	1.355859e+00	1.360091e+00	1.370421e+00	1.371242e+00	1.375713e+00	1.386518e+00	1.388045e+00	1.394248e+00	1.405767e+00	1.409894e+00	1.421870e+00	1.429561e+00	1.441314e+00	1.453915e+00	1.467973e+00	1.486771e+00	1.503433e+00	1.528958e+00	1.561824e+00	1.595287e+00	1.630135e+00	1.680995e+00	
VECTORS Momentum double
-5.080823e-01	2.082170e+02	0.0	1.303984e+02	2.521182e+02	0.0	2.087226e+02	2.155250e+02	0.0	2.421527e+02	1.705947e+02	0.0	2.577002e+02	1.443776e+02	0.0	2.684363e+02	1.286637e+02	0.0	2.742339e+02	1.141164e+02	0.0	2.782276e+02	1.047761e+02	0.0	2.814159e+02	9.768134e+01	0.0	2.854405e+02	9.195511e+01	0.0	2.873624e+02	8.723055e+01	0.0	2.881987e+02	8.225968e+01	0.0	2.904259e+02	7.948127e+01	0.0	2.909040e+02	7.507832e+01	0.0	2.931402e+02	7.413785e+01	0.0	2.935864e+02	7.052748e+01	0.0	2.941755e+02	6.721697e+01	0.0	2.961071e+02	6.707132e+01	0.0	2.964575e+02	6.391515e+01	0.0	2.963599e+02	6.103068e+01	0.0	2.982651e+02	6.173841e+01	0.0	2.983081e+02	5.916620e+01	0.0	2.979238e+02	5.577420e+01	0.0	2.991364e+02	5.591783e+01	0.0	3.001638e+02	5.551989e+01	0.0	2.998090e+02	5.282978e+01	0.0	2.997445e+02	5.093008e+01	0.0	3.008823e+02	5.125414e+01	0.0	3.015311e+02	5.068432e+01	0.0	3.010055e+02	4.822707e+01	0.0	3.010963e+02	4.645152e+01	0.0	3.017889e+02	4.658037e+01	0.0	3.027439e+02	4.699144e+01	0.0	3.020518e+02	4.470931e+01	0.0	3.016293e+02	4.245732e+01	0.0	3.025034e+02	4.256651e+01	0.0	3.031108e+02	4.286050e+01	0.0	3.033269e+02	4.241531e+01	0.0	3.028473e+02	4.019163e+01	0.0	3.025503e+02	3.852701e+01	0.0	3.035774e+02	3.873663e+01	0.0	3.039299e+02	3.893004e+01	0.0	3.042634e+02	3.888003e+01	0.0	3.036053e+02	3.685338e+01	0.0	3.029339e+02	3.486503e+01	0.0	3.036129e+02	3.495979e+01	0.0	3.040343e+02	3.509825e+01	0.0	3.044522e+02	3.524892e+01	0.0	3.043810e+02	3.437673e+01	0.0	3.037476e+02	3.238230e+01	0.0	3.035646e+02	3.140743e+01	0.0	3.040773e+02	3.155420e+01	0.0	3.044716e+02	3.169867e+01	0.0	3.047377e+02	3.182329e+01	0.0	3.047230e+02	3.114820e+01	0.0	3.041088e+02	2.929005e+01	0.0	3.039268e+02	2.822801e+01	0.0	3.043449e+02	2.821823e+01	0.0	3.046422e+02	2.836053e+01	0.0	3.047465e+02	2.840622e+01	0.0	3.051792e+02	2.861967e+01	0.0	3.047728e+02	2.729361e+01	0.0	3.040627e+02	2.532830e+01	0.0	3.041404e+02	2.504739e+01	0.0	3.045822e+02	2.521363e+01	0.0	3.048452e+02	2.526167e+01	0.0	3.049962e+02	2.529731e+01	0.0	3.053660e+02	2.538016e+01	0.0	3.050873e+02	2.418244e+01	0.0	3.043715e+02	2.254481e+01	0.0	3.044207e+02	2.209686e+01	0.0	3.047683e+02	2.216138e+01	0.0	3.050157e+02	2.223524e+01	0.0	3.050971e+02	2.223928e+01	0.0	3.053394e+02	2.228273e+01	0.0	3.056276e+02	2.213062e+01	0.0	3.049214e+02	2.054991e+01	0.0	3.042880e+02	1.905116e+01	0.0	3.045471e+02	1.909926e+01	0.0	3.048060e+02	1.930701e+01	0.0	3.049842e+02	1.933434e+01	0.0	3.051602e+02	1.932510e+01	0.0	3.053011e+02	1.933865e+01	0.0	3.056349e+02	1.938986e+01	0.0	3.049109e+02	1.786310e+01	0.0	3.041825e+02	1.633498e+01	0.0	3.044729e+02	1.628979e+01	0.0	3.047994e+02	1.650011e+01	0.0	3.049001e+02	1.652380e+01	0.0	3.050169e+02	1.651049e+01	0.0	3.052264e+02	1.652691e+01	0.0	3.053640e+02	1.659947e+01	0.0	3.052795e+02	1.607927e+01	0.0	3.045529e+02	1.454400e+01	0.0	3.040640e+02	1.359978e+01	0.0	3.043529e+02	1.360822e+01	0.0	3.046439e+02	1.371499e+01	0.0	3.048007e+02	1.373425e+01	0.0	3.049330e+02	1.372911e+01	0.0	3.051036e+02	1.374153e+01	0.0	3.051738e+02	1.378867e+01	0.0	3.051265e+02	1.346720e+01	0.0	3.043934e+02	1.198696e+01	0.0	3.037945e+02	1.075285e+01	0.0	3.040837e+02	1.079761e+01	0.0	3.043776e+02	1.094534e+01	0.0	3.044939e+02	1.094861e+01	0.0	3.046480e+02	1.094557e+01	0.0	3.046772e+02	1.093938e+01	0.0	3.046768e+02	1.094758e+01	0.0	3.050714e+02	1.102106e+01	0.0	3.045632e+02	1.008581e+01	0.0	3.035703e+02	8.519595e+00	0.0	3.034616e+02	7.919952e+00	0.0	3.038281e+02	8.026579e+00	0.0	3.041203e+02	8.188939e+00	0.0	3.042889e+02	8.205861e+00	0.0	3.043470e+02	8.192333e+00	0.0	3.044371e+02	8.188140e+00	0.0	3.045261e+02	8.180913e+00	0.0	3.047080e+02	8.301595e+00	0.0	3.043465e+02	7.562651e+00	0.0	3.032916e+02	5.975597e+00	0.0	3.031580e+02	5.289745e+00	0.0	3.034286e+02	5.404525e+00	0.0	3.035953e+02	5.458815e+00	0.0	3.036408e+02	5.457019e+00	0.0	3.037587e+02	5.441501e+00	0.0	3.039081e+02	5.442772e+00	0.0	3.040258e+02	5.439956e+00	0.0	3.041237e+02	5.470619e+00	0.0	3.043574e+02	5.319618e+00	0.0	3.035170e+02	3.878280e+00	0.0	3.026511e+02	2.501895e+00	0.0	3.027557e+02	2.463473e+00	0.0	3.031527e+02	2.700079e+00	0.0	3.032193e+02	2.749071e+00	0.0	3.032791e+02	2.733598e+00	0.0	3.033535e+02	2.722756e+00	0.0	3.034656e+02	2.721976e+00	0.0	3.035719e+02	2.719695e+00	0.0	3.036562e+02	2.760147e+00	0.0	3.034313e+02	2.293567e+00	0.0	3.023376e+02	7.670726e-01	0.0	3.017552e+02	-2.493484e-01	0.0	3.021450e+02	-1.797889e-01	0.0	3.024266e+02	-4.821223e-02	0.0	3.024350e+02	-4.124960e-02	0.0	3.025269e+02	-6.186369e-02	0.0	3.026459e+02	-6.089566e-02	0.0	3.027363e+02	-6.038893e-02	0.0	3.028514e+02	-5.763179e-02	0.0	3.029894e+02	2.013300e-02	0.0	3.028133e+02	-3.778464e-01	0.0	3.017822e+02	-1.964915e+00	0.0	3.011882e+02	-3.067648e+00	0.0	3.014869e+02	-3.018835e+00	0.0	3.016059e+02	-2.991102e+00	0.0	3.016647e+02	-2.999279e+00	0.0	3.017734e+02	-3.002597e+00	0.0	3.018377e+02	-3.007936e+00	0.0	3.019765e+02	-3.015367e+00	0.0	3.021020e+02	-3.016388e+00	0.0	3.020764e+02	-3.003208e+00	0.0	3.023591e+02	-2.918357e+00	0.0	3.013107e+02	-4.454459e+00	0.0	2.999776e+02	-6.230953e+00	0.0	3.002777e+02	-6.327779e+00	0.0	3.005865e+02	-6.175042e+00	0.0	3.007669e+02	-6.120986e+00	0.0	3.008523e+02	-6.135639e+00	0.0	3.009760e+02	-6.144776e+00	0.0	3.010903e+02	-6.146326e+00	0.0	3.012156e+02	-6.150602e+00	0.0	3.012565e+02	-6.133940e+00	0.0	3.015959e+02	-6.127758e+00	0.0	3.007945e+02	-7.330722e+00	0.0	2.994335e+02	-9.114417e+00	0.0	2.992075e+02	-9.634320e+00	0.0	2.994699e+02	-9.522321e+00	0.0	2.996080e+02	-9.451862e+00	0.0	2.997207e+02	-9.439675e+00	0.0	2.997491e+02	-9.453015e+00	0.0	2.998471e+02	-9.467429e+00	0.0	2.999470e+02	-9.478402e+00	0.0	3.000773e+02	-9.466774e+00	0.0	3.002128e+02	-9.483565e+00	0.0	2.998885e+02	-1.011505e+01	0.0	2.984733e+02	-1.195434e+01	0.0	2.976776e+02	-1.312984e+01	0.0	2.981165e+02	-1.300128e+01	0.0	2.982431e+02	-1.289248e+01	0.0	2.982938e+02	-1.289039e+01	0.0	2.983381e+02	-1.291925e+01	0.0	2.985115e+02	-1.293129e+01	0.0	2.985870e+02	-1.293112e+01	0.0	2.986876e+02	-1.293770e+01	0.0	2.988806e+02	-1.287669e+01	0.0	2.987649e+02	-1.315383e+01	0.0	2.973435e+02	-1.487523e+01	0.0	2.958746e+02	-1.656060e+01	0.0	2.962904e+02	-1.659208e+01	0.0	2.966012e+02	-1.646124e+01	0.0	2.968100e+02	-1.640160e+01	0.0	2.968793e+02	-1.642338e+01	0.0	2.969749e+02	-1.644906e+01	0.0	2.971139e+02	-1.645667e+01	0.0	2.971674e+02	-1.645615e+01	0.0	2.973116e+02	-1.642420e+01	0.0	2.972987e+02	-1.671780e+01	0.0	2.957855e+02	-1.844662e+01	0.0	2.945226e+02	-1.995381e+01	0.0	2.947308e+02	-1.996942e+01	0.0	2.949557e+02	-1.984033e+01	0.0	2.950370e+02	-1.981899e+01	0.0	2.952289e+02	-1.984280e+01	0.0	2.953546e+02	-1.986052e+01	0.0	2.954422e+02	-1.988356e+01	0.0	2.955562e+02	-1.988554e+01	0.0	2.957787e+02	-1.984723e+01	0.0	2.952913e+02	-2.041354e+01	0.0	2.936574e+02	-2.203408e+01	0.0	2.929222e+02	-2.309024e+01	0.0	2.931384e+02	-2.312507e+01	0.0	2.934936e+02	-2.299524e+01	0.0	2.936714e+02	-2.296469e+01	0.0	2.937254e+02	-2.297958e+01	0.0	2.939742e+02	-2.301748e+01	0.0	2.937445e+02	-2.301861e+01	0.0	2.948079e+02	-2.279769e+01	0.0	2.928229e+02	-2.352903e+01	0.0	2.895226e+02	-2.423320e+01	0.0	2.830977e+02	-2.301123e+01	0.0	2.807771e+02	-2.417218e+01	0.0	2.817614e+02	-2.474849e+01	0.0	2.823033e+02	-2.496750e+01	0.0	2.822860e+02	-2.487830e+01	0.0	2.822775e+02	-2.488820e+01	0.0	2.827763e+02	-2.492482e+01	0.0	2.831265e+02	-2.497047e+01	0.0	2.842731e+02	-2.509037e+01	0.0	2.845716e+02	-2.645778e+01	0.0	2.846081e+02	-2.770453e+01	0.0	2.846095e+02	-2.765194e+01	0.0	2.846301e+02	-2.765835e+01	0.0	2.847512e+02	-2.767414e+01	0.0	2.849353e+02	-2.768643e+01	0.0	2.851568e+02	-2.772894e+01	0.0	2.857297e+02	-2.779098e+01	0.0	2.863110e+02	-2.782949e+01	0.0	2.870520e+02	-2.850261e+01	0.0	2.870501e+02	-2.973285e+01	0.0	2.865645e+02	-3.028975e+01	0.0	2.864216e+02	-3.025364e+01	0.0	2.866805e+02	-3.027849e+01	0.0	2.867468e+02	-3.027663e+01	0.0	2.867595e+02	-3.027051e+01	0.0	2.868415e+02	-3.030696e+01	0.0	2.874276e+02	-3.034885e+01	0.0	2.878691e+02	-3.089218e+01	0.0	2.877507e+02	-3.203253e+01	0.0	2.873854e+02	-3.261487e+01	0.0	2.870507e+02	-3.258044e+01	0.0	2.870658e+02	-3.257580e+01	0.0	2.870834e+02	-3.258035e+01	0.0	2.871772e+02	-3.258724e+01	0.0	2.871881e+02	-3.258883e+01	0.0	2.876267e+02	-3.260467e+01	0.0	2.879077e+02	-3.361862e+01	0.0	2.873600e+02	-3.468981e+01	0.0	2.870868e+02	-3.471976e+01	0.0	2.868485e+02	-3.468281e+01	0.0	2.866216e+02	-3.466853e+01	0.0	2.865606e+02	-3.466942e+01	0.0	2.866782e+02	-3.468662e+01	0.0	2.871037e+02	-3.471357e+01	0.0	2.871885e+02	-3.563992e+01	0.0	2.867160e+02	-3.664296e+01	0.0	2.860791e+02	-3.668186e+01	0.0	2.857621e+02	-3.660682e+01	0.0	2.856383e+02	-3.660221e+01	0.0	2.856308e+02	-3.661742e+01	0.0	2.856750e+02	-3.661615e+01	0.0	2.858595e+02	-3.694435e+01	0.0	2.854849e+02	-3.787993e+01	0.0	2.848883e+02	-3.839653e+01	0.0	2.844758e+02	-3.832780e+01	0.0	2.842379e+02	-3.828885e+01	0.0	2.839421e+02	-3.826298e+01	0.0	2.839983e+02	-3.826263e+01	0.0	2.841384e+02	-3.860083e+01	0.0	2.839691e+02	-3.948970e+01	0.0	2.832855e+02	-3.997078e+01	0.0	2.828360e+02	-3.987089e+01	0.0	2.824229e+02	-3.981104e+01	0.0	2.820344e+02	-3.978932e+01	0.0	2.823021e+02	-3.982537e+01	0.0	2.821983e+02	-4.050371e+01	0.0	2.815230e+02	-4.120770e+01	0.0	2.809280e+02	-4.124561e+01	0.0	2.806984e+02	-4.120432e+01	0.0	2.804013e+02	-4.119192e+01	0.0	2.803999e+02	-4.118879e+01	0.0	2.802293e+02	-4.178947e+01	0.0	2.795206e+02	-4.245134e+01	0.0	2.788483e+02	-4.246602e+01	0.0	2.785068e+02	-4.239521e+01	0.0	2.780855e+02	-4.234099e+01	0.0	2.780900e+02	-4.250507e+01	0.0	2.775472e+02	-4.312739e+01	0.0	2.767677e+02	-4.351551e+01	0.0	2.762409e+02	-4.340954e+01	0.0	2.758741e+02	-4.335108e+01	0.0	2.757797e+02	-4.342834e+01	0.0	2.752075e+02	-4.399231e+01	0.0	2.745333e+02	-4.441458e+01	0.0	2.740087e+02	-4.431910e+01	0.0	2.736042e+02	-4.424331e+01	0.0	2.732090e+02	-4.446528e+01	0.0	2.724164e+02	-4.498866e+01	0.0	2.717627e+02	-4.519228e+01	0.0	2.712993e+02	-4.509635e+01	0.0	2.709536e+02	-4.515055e+01	0.0	2.702012e+02	-4.560786e+01	0.0	2.691972e+02	-4.588419e+01	0.0	2.685687e+02	-4.577006e+01	0.0	2.680789e+02	-4.587555e+01	0.0	2.673523e+02	-4.631676e+01	0.0	2.663994e+02	-4.653452e+01	0.0	2.657967e+02	-4.641638e+01	0.0	2.650729e+02	-4.671348e+01	0.0	2.637932e+02	-4.702826e+01	0.0	2.629421e+02	-4.692898e+01	0.0	2.619284e+02	-4.708208e+01	0.0	2.605394e+02	-4.737344e+01	0.0	2.594895e+02	-4.735875e+01	0.0	2.584806e+02	-4.752794e+01	0.0	2.569065e+02	-4.774607e+01	0.0	2.554813e+02	-4.768629e+01	0.0	2.541642e+02	-4.789022e+01	0.0	2.525817e+02	-4.793915e+01	0.0	2.507840e+02	-4.806010e+01	0.0	2.486858e+02	-4.814150e+01	0.0	2.465032e+02	-4.812437e+01	0.0	2.437184e+02	-4.812697e+01	0.0	2.406440e+02	-4.790480e+01	0.0	2.363950e+02	-4.767008e+01	0.0	2.312996e+02	-4.733342e+01	0.0	2.264638e+02	-4.762200e+01	0.0	2.079429e+02	-2.045100e+01	0.0	2.847249e+02	-1.680225e+01	0.0	2.712360e+02	-1.200022e+01	0.0	2.707130e+02	-1.011113e+01	0.0	2.704299e+02	-8.136227e+00	0.0	2.698954e