# vtk DataFile Version 3.0
vtk output
ASCII
DATASET UNSTRUCTURED_GRID
POINTS 6450 double
1.868554e-04	9.823874e-04	0.0	4.068719e-04	2.139119e-03	0.0	7.723020e-04	3.461190e-03	0.0	1.585088e-03	4.874790e-03	0.0	2.593217e-03	6.497752e-03	0.0	4.158881e-03	8.118663e-03	0.0	6.092756e-03	9.913220e-03	0.0	8.600889e-03	1.174514e-02	0.0	1.169734e-02	1.364977e-02	0.0	1.543788e-02	1.569368e-02	0.0	1.998409e-02	1.774385e-02	0.0	2.539164e-02	1.989927e-02	0.0	3.178394e-02	2.217885e-02	0.0	3.930716e-02	2.457553e-02	0.0	4.811827e-02	2.709087e-02	0.0	5.839308e-02	2.970939e-02	0.0	7.031046e-02	3.245497e-02	0.0	8.406825e-02	3.531930e-02	0.0	9.987484e-02	3.826310e-02	0.0	1.179311e-01	4.127301e-02	0.0	1.384292e-01	4.432656e-02	0.0	1.615422e-01	4.738658e-02	0.0	1.874148e-01	5.035337e-02	0.0	2.161332e-01	5.318680e-02	0.0	2.477205e-01	5.581770e-02	0.0	2.821206e-01	5.815430e-02	0.0	3.191821e-01	6.010288e-02	0.0	3.586508e-01	6.159899e-02	0.0	4.001711e-01	6.252108e-02	0.0	4.432887e-01	6.277558e-02	0.0	4.874672e-01	6.228493e-02	0.0	5.321105e-01	6.092586e-02	0.0	5.765925e-01	5.862783e-02	0.0	6.202957e-01	5.543747e-02	0.0	6.626546e-01	5.155581e-02	0.0	7.031825e-01	4.723135e-02	0.0	7.414788e-01	4.263629e-02	0.0	7.772432e-01	3.792001e-02	0.0	8.102752e-01	3.319244e-02	0.0	8.404820e-01	2.860797e-02	0.0	8.678504e-01	2.424165e-02	0.0	8.924385e-01	2.014189e-02	0.0	9.143638e-01	1.635238e-02	0.0	9.337803e-01	1.287205e-02	0.0	9.508741e-01	9.716652e-03	0.0	9.658416e-01	6.867914e-03	0.0	9.788873e-01	4.317554e-03	0.0	9.902099e-01	2.038145e-03	0.0	0.000000e+00	0.000000e+00	0.0	1.000000e+00	0.000000e+00	0.0	9.900132e-01	5.126793e-04	0.0	9.784720e-01	9.349347e-04	0.0	9.651834e-01	1.175276e-03	0.0	9.499506e-01	1.166614e-03	0.0	9.325769e-01	7.980478e-04	0.0	9.128739e-01	3.732606e-06	0.0	8.906721e-01	-1.318222e-03	0.0	8.658308e-01	-3.236622e-03	0.0	8.382510e-01	-5.806833e-03	0.0	8.078945e-01	-9.092988e-03	0.0	7.747874e-01	-1.307558e-02	0.0	7.390487e-01	-1.778085e-02	0.0	7.008819e-01	-2.313179e-02	0.0	6.605779e-01	-2.895947e-02	0.0	6.185196e-01	-3.505426e-02	0.0	5.751681e-01	-4.114689e-02	0.0	5.310447e-01	-4.690047e-02	0.0	4.867125e-01	-5.193648e-02	0.0	4.427533e-01	-5.583942e-02	0.0	3.997552e-01	-5.830856e-02	0.0	3.582817e-01	-5.919807e-02	0.0	3.188331e-01	-5.871985e-02	0.0	2.817889e-01	-5.731018e-02	0.0	2.474071e-01	-5.528254e-02	0.0	2.158361e-01	-5.287606e-02	0.0	1.871305e-01	-5.022753e-02	0.0	1.612676e-01	-4.741359e-02	0.0	1.381600e-01	-4.449155e-02	0.0	1.176650e-01	-4.155259e-02	0.0	9.961099e-02	-3.863201e-02	0.0	8.380728e-02	-3.574981e-02	0.0	7.005351e-02	-3.292356e-02	0.0	5.814407e-02	-3.018647e-02	0.0	4.788189e-02	-2.755009e-02	0.0	3.909135e-02	-2.498585e-02	0.0	3.159690e-02	-2.251673e-02	0.0	2.523741e-02	-2.015905e-02	0.0	1.986393e-02	-1.792869e-02	0.0	1.534775e-02	-1.581893e-02	0.0	1.163654e-02	-1.372532e-02	0.0	8.564138e-03	-1.178437e-02	0.0	6.071653e-03	-9.932983e-03	0.0	4.149887e-03	-8.125849e-03	0.0	2.591097e-03	-6.499081e-03	0.0	1.585676e-03	-4.874625e-03	0.0	7.743669e-04	-3.460449e-03	0.0	4.074825e-04	-2.138945e-03	0.0	1.871407e-04	-9.823331e-04	0.0	1.010000e+00	0.000000e+00	0.0	1.020144e+00	0.000000e+00	0.0	1.030577e+00	0.000000e+00	0.0	1.041450e+00	0.000000e+00	0.0	1.052920e+00	0.000000e+00	0.0	1.065150e+00	0.000000e+00	0.0	1.078317e+00	0.000000e+00	0.0	1.092611e+00	0.000000e+00	0.0	1.108236e+00	0.000000e+00	0.0	1.125418e+00	0.000000e+00	0.0	1.144403e+00	0.000000e+00	0.0	1.165465e+00	0.000000e+00	0.0	1.188906e+00	0.000000e+00	0.0	1.215064e+00	0.000000e+00	0.0	1.244315e+00	0.000000e+00	0.0	1.277079e+00	0.000000e+00	0.0	1.313828e+00	0.000000e+00	0.0	1.355090e+00	0.000000e+00	0.0	1.401458e+00	0.000000e+00	0.0	1.453599e+00	0.000000e+00	0.0	1.512264e+00	0.000000e+00	0.0	1.578295e+00	0.000000e+00	0.0	1.652642e+00	0.000000e+00	0.0	1.736375e+00	0.000000e+00	0.0	1.830697e+00	0.000000e+00	0.0	1.936965e+00	0.000000e+00	0.0	2.056707e+00	0.000000e+00	0.0	2.191645e+00	0.000000e+00	0.0	2.343720e+00	0.000000e+00	0.0	2.515118e+00	0.000000e+00	0.0	2.708305e+00	0.000000e+00	0.0	2.926058e+00	0.000000e+00	0.0	3.171509e+00	0.000000e+00	0.0	3.448187e+00	0.000000e+00	0.0	3.760072e+00	0.000000e+00	0.0	4.111648e+00	0.000000e+00	0.0	4.507972e+00	0.000000e+00	0.0	4.954743e+00	0.000000e+00	0.0	5.458384e+00	0.000000e+00	0.0	6.026141e+00	0.000000e+00	0.0	6.666176e+00	0.000000e+00	0.0	7.387694e+00	0.000000e+00	0.0	8.201070e+00	0.000000e+00	0.0	9.118003e+00	0.000000e+00	0.0	1.015168e+01	0.000000e+00	0.0	1.131696e+01	0.000000e+00	0.0	1.263060e+01	0.000000e+00	0.0	1.411150e+01	0.000000e+00	0.0	1.578095e+01	0.000000e+00	0.0	1.766296e+01	0.000000e+00	0.0	1.978460e+01	0.000000e+00	0.0	2.217636e+01	0.000000e+00	0.0	2.487266e+01	0.000000e+00	0.0	2.791226e+01	0.000000e+00	0.0	3.133887e+01	0.000000e+00	0.0	3.520177e+01	0.000000e+00	0.0	3.955652e+01	0.000000e+00	0.0	4.446573e+01	0.000000e+00	0.0	5.000000e+01	0.000000e+00	0.0	5.000000e+01	1.650000e-05	0.0	5.000000e+01	3.751520e-05	0.0	5.000000e+01	6.879636e-05	0.0	5.000000e+01	1.189035e-04	0.0	5.000000e+01	2.015484e-04	0.0	5.000000e+01	3.393467e-04	0.0	5.000000e+01	5.700066e-04	0.0	5.000000e+01	9.566478e-04	0.0	5.000000e+01	1.605074e-03	0.0	5.000000e+01	2.692726e-03	0.0	5.000000e+01	4.517237e-03	0.0	5.000000e+01	7.577883e-03	0.0	5.000000e+01	1.271220e-02	0.0	5.000000e+01	2.132519e-02	0.0	5.000000e+01	3.577379e-02	0.0	5.000000e+01	6.001182e-02	0.0	5.000000e+01	1.006720e-01	0.0	5.000000e+01	1.688808e-01	0.0	5.000000e+01	2.833036e-01	0.0	5.000000e+01	4.752520e-01	0.0	5.000000e+01	7.972522e-01	0.0	5.000000e+01	1.337419e+00	0.0	5.000000e+01	2.243568e+00	0.0	5.000000e+01	3.763666e+00	0.0	5.000000e+01	6.313684e+00	0.0	5.000000e+01	1.059143e+01	0.0	5.000000e+01	1.776750e+01	0.0	5.000000e+01	2.980562e+01	0.0	5.000000e+01	5.000000e+01	0.0	5.000000e+01	-1.650000e-05	0.0	5.000000e+01	-3.751520e-05	0.0	5.000000e+01	-6.879636e-05	0.0	5.000000e+01	-1.189035e-04	0.0	5.000000e+01	-2.015484e-04	0.0	5.000000e+01	-3.393467e-04	0.0	5.000000e+01	-5.700066e-04	0.0	5.000000e+01	-9.566478e-04	0.0	5.000000e+01	-1.605074e-03	0.0	5.000000e+01	-2.692726e-03	0.0	5.000000e+01	-4.517237e-03	0.0	5.000000e+01	-7.577883e-03	0.0	5.000000e+01	-1.271220e-02	0.0	5.000000e+01	-2.132519e-02	0.0	5.000000e+01	-3.577379e-02	0.0	5.000000e+01	-6.001182e-02	0.0	5.000000e+01	-1.006720e-01	0.0	5.000000e+01	-1.688808e-01	0.0	5.000000e+01	-2.833036e-01	0.0	5.000000e+01	-4.752520e-01	0.0	5.000000e+01	-7.972522e-01	0.0	5.000000e+01	-1.337419e+00	0.0	5.000000e+01	-2.243568e+00	0.0	5.000000e+01	-3.763666e+00	0.0	5.000000e+01	-6.313684e+00	0.0	5.000000e+01	-1.059143e+01	0.0	5.000000e+01	-1.776750e+01	0.0	5.000000e+01	-2.980562e+01	0.0	5.000000e+01	-5.000000e+01	0.0	1.000000e+00	1.650000e-05	0.0	1.000000e+00	3.751520e-05	0.0	1.000000e+00	6.879636e-05	0.0	1.000000e+00	1.189035e-04	0.0	1.000000e+00	2.015484e-04	0.0	1.000000e+00	3.393467e-04	0.0	1.000000e+00	5.700066e-04	0.0	1.000000e+00	9.566478e-04	0.0	1.000000e+00	1.605074e-03	0.0	1.000000e+00	2.692726e-03	0.0	1.000000e+00	4.517237e-03	0.0	1.000000e+00	7.577883e-03	0.0	1.000000e+00	1.271220e-02	0.0	1.000000e+00	2.132519e-02	0.0	1.000000e+00	3.577379e-02	0.0	1.000000e+00	6.001182e-02	0.0	1.000000e+00	1.006720e-01	0.0	1.000000e+00	1.688808e-01	0.0	1.000000e+00	2.833036e-01	0.0	1.000000e+00	4.752520e-01	0.0	1.000000e+00	7.972522e-01	0.0	1.000000e+00	1.337419e+00	0.0	1.000000e+00	2.243568e+00	0.0	1.000000e+00	3.763666e+00	0.0	1.000000e+00	6.313684e+00	0.0	1.000000e+00	1.059143e+01	0.0	1.000000e+00	1.776750e+01	0.0	1.000000e+00	2.980562e+01	0.0	1.000000e+00	5.000000e+01	0.0	1.000000e+00	-1.650000e-05	0.0	1.000000e+00	-3.751520e-05	0.0	1.000000e+00	-6.879636e-05	0.0	1.000000e+00	-1.189035e-04	0.0	1.000000e+00	-2.015484e-04	0.0	1.000000e+00	-3.393467e-04	0.0	1.000000e+00	-5.700066e-04	0.0	1.000000e+00	-9.566478e-04	0.0	1.000000e+00	-1.605074e-03	0.0	1.000000e+00	-2.692726e-03	0.0	1.000000e+00	-4.517237e-03	0.0	1.000000e+00	-7.577883e-03	0.0	1.000000e+00	-1.271220e-02	0.0	1.000000e+00	-2.132519e-02	0.0	1.000000e+00	-3.577379e-02	0.0	1.000000e+00	-6.001182e-02	0.0	1.000000e+00	-1.006720e-01	0.0	1.000000e+00	-1.688808e-01	0.0	1.000000e+00	-2.833036e-01	0.0	1.000000e+00	-4.752520e-01	0.0	1.000000e+00	-7.972522e-01	0.0	1.000000e+00	-1.337419e+00	0.0	1.000000e+00	-2.243568e+00	0.0	1.000000e+00	-3.763666e+00	0.0	1.000000e+00	-6.313684e+00	0.0	1.000000e+00	-1.059143e+01	0.0	1.000000e+00	-1.776750e+01	0.0	1.000000e+00	-2.980562e+01	0.0	1.000000e+00	-5.000000e+01	0.0	1.010000e+00	5.000000e+01	0.0	1.020144e+00	5.000000e+01	0.0	1.030577e+00	5.000000e+01	0.0	1.041450e+00	5.000000e+01	0.0	1.052920e+00	5.000000e+01	0.0	1.065150e+00	5.000000e+01	0.0	1.078317e+00	5.000000e+01	0.0	1.092611e+00	5.000000e+01	0.0	1.108236e+00	5.000000e+01	0.0	1.125418e+00	5.000000e+01	0.0	1.144403e+00	5.000000e+01	0.0	1.165465e+00	5.000000e+01	0.0	1.188906e+00	5.000000e+01	0.0	1.215064e+00	5.000000e+01	0.0	1.244315e+00	5.000000e+01	0.0	1.277079e+00	5.000000e+01	0.0	1.313828e+00	5.000000e+01	0.0	1.355090e+00	5.000000e+01	0.0	1.401458e+00	5.000000e+01	0.0	1.453599e+00	5.000000e+01	0.0	1.512264e+00	5.000000e+01	0.0	1.578295e+00	5.000000e+01	0.0	1.652642e+00	5.000000e+01	0.0	1.736375e+00	5.000000e+01	0.0	1.830697e+00	5.000000e+01	0.0	1.936965e+00	5.000000e+01	0.0	2.056707e+00	5.000000e+01	0.0	2.191645e+00	5.000000e+01	0.0	2.343720e+00	5.000000e+01	0.0	2.515118e+00	5.000000e+01	0.0	2.708305e+00	5.000000e+01	0.0	2.926058e+00	5.000000e+01	0.0	3.171509e+00	5.000000e+01	0.0	3.448187e+00	5.000000e+01	0.0	3.760072e+00	5.000000e+01	0.0	4.111648e+00	5.000000e+01	0.0	4.507972e+00	5.000000e+01	0.0	4.954743e+00	5.000000e+01	0.0	5.458384e+00	5.000000e+01	0.0	6.026141e+00	5.000000e+01	0.0	6.666176e+00	5.000000e+01	0.0	7.387694e+00	5.000000e+01	0.0	8.201070e+00	5.000000e+01	0.0	9.118003e+00	5.000000e+01	0.0	1.015168e+01	5.000000e+01	0.0	1.131696e+01	5.000000e+01	0.0	1.263060e+01	5.000000e+01	0.0	1.411150e+01	5.000000e+01	0.0	1.578095e+01	5.000000e+01	0.0	1.766296e+01	5.000000e+01	0.0	1.978460e+01	5.000000e+01	0.0	2.217636e+01	5.000000e+01	0.0	2.487266e+01	5.000000e+01	0.0	2.791226e+01	5.000000e+01	0.0	3
[...]
POINT_DATA 6450

SCALARS Density double 1
LOOKUP_TABLE default
5.020997e-01	4.997063e-01	4.513214e-01	4.244328e-01	3.975833e-01	3.706846e-01	3.563349e-01	3.364771e-01	3.279625e-01	3.165094e-01	3.073733e-01	3.064279e-01	3.064400e-01	3.062257e-01	3.058396e-01	3.061131e-01	3.069689e-01	3.072214e-01	3.072210e-01	3.074516e-01	3.075617e-01	3.068796e-01	3.057953e-01	3.047377e-01	3.033374e-01	3.015258e-01	2.995645e-01	2.973587e-01	2.949242e-01	2.918109e-01	2.858871e-01	2.777213e-01	2.748806e-01	3.242030e-01	4.003590e-01	4.181466e-01	4.141563e-01	4.142897e-01	4.210334e-01	4.282215e-01	4.336863e-01	4.387852e-01	4.439569e-01	4.488779e-01	4.536576e-01	4.572778e-01	4.596535e-01	4.576931e-01	5.267207e-01	4.623918e-01	4.830903e-01	4.947182e-01	4.986535e-01	4.990913e-01	4.988797e-01	4.979757e-01	4.963507e-01	4.941784e-01	4.913332e-01	4.879968e-01	4.840697e-01	4.791612e-01	4.733713e-01	4.667150e-01	4.591122e-01	4.504933e-01	4.407766e-01	4.307023e-01	4.223879e-01	4.186767e-01	4.205751e-01	4.258648e-01	4.322363e-01	4.385778e-01	4.443428e-01	4.497232e-01	4.552094e-01	4.607482e-01	4.661169e-01	4.715918e-01	4.774687e-01	4.836877e-01	4.898636e-01	4.965782e-01	5.042131e-01	5.124853e-01	5.210895e-01	5.287432e-01	5.386355e-01	5.491436e-01	5.575784e-01	5.684370e-01	5.753623e-01	5.814369e-01	5.819563e-01	5.780284e-01	5.632709e-01	5.555572e-01	4.797154e-01	4.780466e-01	4.754575e-01	4.733974e-01	4.716698e-01	4.702712e-01	4.690179e-01	4.678167e-01	4.666703e-01	4.655796e-01	4.645338e-01	4.635241e-01	4.625452e-01	4.615949e-01	4.606722e-01	4.597784e-01	4.589172e-01	4.580957e-01	4.573204e-01	4.565866e-01	4.558625e-01	4.550903e-01	4.542264e-01	4.533047e-01	4.524558e-01	4.518414e-01	4.515517e-01	4.515591e-01	4.517572e-01	4.520359e-01	4.523232e-01	4.525829e-01	4.527972e-01	4.529573e-01	4.530625e-01	4.531190e-01	4.531373e-01	4.531282e-01	4.531017e-01	4.530656e-01	4.530258e-01	4.529865e-01	4.529503e-01	4.529189e-01	4.528930e-01	4.528725e-01	4.528571e-01	4.528460e-01	4.528384e-01	4.528335e-01	4.528305e-01	4.528285e-01	4.528272e-01	4.528256e-01	4.528235e-01	4.528177e-01	4.528117e-01	4.527866e-01	4.527533e-01	4.527533e-01	4.527533e-01	4.527533e-01	4.527533e-01	4.527532e-01	4.527531e-01	4.527531e-01	4.527532e-01	4.527537e-01	4.527543e-01	4.527544e-01	4.527529e-01	4.527495e-01	4.527458e-01	4.527463e-01	4.527567e-01	4.527773e-01	4.527938e-01	4.527748e-01	4.526933e-01	4.525657e-01	4.524764e-01	4.525083e-01	4.526672e-01	4.528231e-01	4.528683e-01	4.528281e-01	4.528074e-01	4.526429e-01	4.527533e-01	4.527533e-01	4.527533e-01	4.527533e-01	4.527533e-01	4.527533e-01	4.527533e-01	4.527533e-01	4.527534e-01	4.527534e-01	4.527534e-01	4.527535e-01	4.527536e-01	4.527537e-01	4.527539e-01	4.527543e-01	4.527549e-01	4.527557e-01	4.527571e-01	4.527591e-01	4.527626e-01	4.527674e-01	4.527761e-01	4.527870e-01	4.528060e-01	4.528200e-01	4.528551e-01	4.528885e-01	4.530549e-01	4.722768e-01	4.754453e-01	4.823341e-01	4.840843e-01	4.867496e-01	4.871420e-01	4.878356e-01	4.874969e-01	4.871923e-01	4.863148e-01	4.851396e-01	4.832067e-01	4.803640e-01	4.765979e-01	4.720013e-01	4.669237e-01	4.611667e-01	4.553826e-01	4.490751e-01	4.419032e-01	4.374608e-01	4.381458e-01	4.419295e-01	4.458588e-01	4.486780e-01	4.504094e-01	4.514165e-01	4.519523e-01	4.521881e-01	4.679018e-01	4.664219e-01	4.702231e-01	4.718670e-01	4.760988e-01	4.802284e-01	4.855513e-01	4.902182e-01	4.935807e-01	4.944493e-01	4.936091e-01	4.923476e-01	4.913739e-01	4.901125e-01	4.882667e-01	4.857477e-01	4.824456e-01	4.781948e-01	4.730491e-01	4.681875e-01	4.645238e-01	4.618221e-01	4.595479e-01	4.575610e-01	4.559717e-01	4.548281e-01	4.540686e-01	4.536231e-01	4.533868e-01	4.521877e-01	4.521873e-01	4.521869e-01	4.521865e-01	4.521861e-01	4.521857e-01	4.521852e-01	4.521847e-01	4.521842e-01	4.521836e-01	4.521830e-01	4.521823e-01	4.521816e-01	4.521808e-01	4.521800e-01	4.521791e-01	4.521781e-01	4.521770e-01	4.521758e-01	4.521745e-01	4.521730e-01	4.521715e-01	4.521698e-01	4.521679e-01	4.521659e-01	4.521637e-01	4.521614e-01	4.521588e-01	4.521561e-01	4.521531e-01	4.521499e-01	4.521466e-01	4.521430e-01	4.521393e-01	4.521354e-01	4.521315e-01	4.521276e-01	4.521237e-01	4.521201e-01	4.521168e-01	4.521140e-01	4.521121e-01	4.521112e-01	4.521118e-01	4.521141e-01	4.521185e-01	4.521256e-01	4.521357e-01	4.521494e-01	4.521670e-01	4.521894e-01	4.522163e-01	4.522497e-01	4.522877e-01	4.523372e-01	4.523880e-01	4.524683e-01	4.525337e-01	4.533871e-01	4.533874e-01	4.533877e-01	4.533880e-01	4.533884e-01	4.533887e-01	4.533891e-01	4.533895e-01	4.533899e-01	4.533904e-01	4.533908e-01	4.533914e-01	4.533920e-01	4.533926e-01	4.533933e-01	4.533941e-01	4.533949e-01	4.533958e-01	4.533969e-01	4.533980e-01	4.533992e-01	4.534005e-01	4.534020e-01	4.534037e-01	4.534055e-01	4.534074e-01	4.534096e-01	4.534120e-01	4.534146e-01	4.534174e-01	4.534205e-01	4.534238e-01	4.534274e-01	4.534313e-01	4.534355e-01	4.534398e-01	4.534444e-01	4.534491e-01	4.534539e-01	4.534586e-01	4.534631e-01	4.534672e-01	4.534707e-01	4.534732e-01	4.534744e-01	4.534738e-01	4.534712e-01	4.534658e-01	4.534573e-01	4.534451e-01	4.534284e-01	4.534073e-01	4.533802e-01	4.533483e-01	4.533068e-01	4.532638e-01	4.531970e-01	4.531425e-01	4.521885e-01	4.521889e-01	4.521894e-01	4.521899e-01	4.521905e-01	4.521912e-01	4.521920e-01	4.521928e-01	4.521938e-01	4.521949e-01	4.521961e-01	4.521974e-01	4.521989e-01	4.522005e-01	4.522024e-01	4.522044e-01	4.522067e-01	4.522093e-01	4.522122e-01	4.522153e-01	4.522187e-01	4.522226e-01	4.522278e-01	4.522338e-01	4.522410e-01	4.522495e-01	4.522596e-01	4.522716e-01	4.522859e-01	4.523029e-01	4.523232e-01	4.523470e-01	4.523748e-01	4.524067e-01	4.524426e-01	4.524821e-01	4.525243e-01	4.525679e-01	4.526112e-01	4.526526e-01	4.526906e-01	4.527241e-01	4.527525e-01	4.527758e-01	4.527945e-01	4.528093e-01	4.528210e-01	4.528307e-01	4.528392e-01	4.528476e-01	4.528569e-01	4.528679e-01	4.528814e-01	4.528981e-01	4.529182e-01	4.529421e-01	4.529696e-01	4.530001e-01	4.530329e-01	4.530669e-01	4.531010e-01	4.531341e-01	4.531653e-01	4.531941e-01	4.532200e-01	4.532429e-01	4.532630e-01	4.532804e-01	4.532953e-01	4.533080e-01	4.533189e-01	4.533282e-01	4.533362e-01	4.533430e-01	4.533488e-01	4.533538e-01	4.533582e-01	4.533619e-01	4.533652e-01	4.533680e-01	4.533705e-01	4.533727e-01	4.533746e-01	4.533763e-01	4.533778e-01	4.533791e-01	4.533803e-01	4.533813e-01	4.533822e-01	4.533830e-01	4.533837e-01	4.533843e-01	4.533849e-01	4.533854e-01	4.533858e-01	4.533862e-01	4.533865e-01	4.623379e-01	4.664236e-01	4.699733e-01	4.720832e-01	4.739117e-01	4.746970e-01	4.753496e-01	4.754654e-01	4.756113e-01	4.755857e-01	4.755438e-01	4.751939e-01	4.742764e-01	4.724360e-01	4.692903e-01	4.651014e-01	4.598456e-01	4.543935e-01	4.482825e-01	4.412663e-01	4.370418e-01	4.379422e-01	4.418550e-01	4.458380e-01	4.486736e-01	4.504087e-01	4.514164e-01	4.519523e-01	4.626610e-01	4.652169e-01	4.671788e-01	4.685253e-01	4.693719e-01	4.697185e-01	4.698308e-01	4.697641e-01	4.697600e-01	4.698171e-01	4.699346e-01	4.699242e-01	4.694898e-01	4.683359e-01	4.660536e-01	4.627347e-01	4.581473e-01	4.531685e-01	4.473321e-01	4.405156e-01	4.365521e-01	4.377081e-01	4.417714e-01	4.458153e-01	4.486689e-01	4.504081e-01	4.514163e-01	4.519522e-01	4.588432e-01	4.601313e-01	4.611070e-01	4.617348e-01	4.620380e-01	4.620879e-01	4.620194e-01	4.619617e-01	4.620299e-01	4.622572e-01	4.625868e-01	4.629197e-01	4.630481e-01	4.628128e-01	4.617208e-01	4.595891e-01	4.559377e-01	4.516273e-01	4.461781e-01	4.396224e-01	4.359742e-01	4.374358e-01	4.416763e-01	4.457900e-01	4.486637e-01	4.504074e-01	4.514162e-01	4.519522e-01	4.544261e-01	4.550463e-01	4.555175e-01	4.558053e-01	4.559303e-01	4.559471e-01	4.559471e-01	4.560265e-01	4.562400e-01	4.566036e-01	4.570519e-01	4.575297e-01	4.578771e-01	4.579817e-01	4.574297e-01	4.560842e-01	4.533012e-01	4.497566e-01	4.447911e-01	4.385605e-01	4.352916e-01	4.371183e-01	4.415673e-01	4.457612e-01	4.486578e-01	4.504065e-01	4.514162e-01	4.519521e-01	4.492477e-01	4.495475e-01	4.497814e-01	4.499310e-01	4.500124e-01	4.500624e-01	4.501379e-01	4.502976e-01	4.505653e-01	4.509505e-01	4.514064e-01	4.519126e-01	4.523552e-01	4.526821e-01	4.526005e-01	4.520131e-01	4.501478e-01	4.474909e-01	4.431206e-01	4.372959e-01	4.344880e-01	4.367512e-01	4.414445e-01	4.457292e-01	4.486511e-01	4.504056e-01	4.514161e-01	4.519520e-01	4.441365e-01	4.442847e-01	4.444058e-01	4.444932e-01	4.445586e-01	4.446277e-01	4.447354e-01	4.449206e-01	4.451986e-01	4.455846e-01	4.460517e-01	4.465941e-01	4.471195e-01	4.475931e-01	4.477927e-01	4.476959e-01	4.465858e-01	4.448249e-01	4.411227e-01	4.357862e-01	4.335394e-01	4.363258e-01	4.413062e-01	4.456942e-01	4.486439e-01	4.504045e-01	4.514159e-01	4.519520e-01	4.388719e-01	4.389454e-01	4.390085e-01	4.390614e-01	4.391130e-01	4.391835e-01	4.392967e-01	4.394839e-01	4.397600e-01	4.401459e-01	4.406244e-01	4.411911e-01	4.417666e-01	4.423299e-01	4.427384e-01	4.430274e-01	4.425979e-01	4.417392e-01	4.387533e-01	4.339879e-01	4.324217e-01	4.358318e-01	4.411487e-01	4.456558e-01	4.486364e-01	4.504034e-01	4.514158e-01	4.519519e-01	4.337270e-01	4.337619e-01	4.337933e-01	4.338243e-01	4.338627e-01	4.339268e-01	4.340359e-01	4.342199e-01	4.344948e-01	4.348856e-01	4.353776e-01	4.359666e-01	4.365791e-01	4.372040e-01	4.377477e-01	4.382702e-01	4.383752e-01	4.383326e-01	4.360300e-01	4.318902e-01	4.311350e-01	4.352719e-01	4.409696e-01	4.456118e-01	4.486281e-01	4.504023e-01	4.514156e-01	4.519518e-01	4.282382e-01	4.282515e-01	4.282632e-01	4.282780e-01	4.283030e-01	4.283567e-01	4.284560e-01	4.286331e-01	4.289027e-01	4.292951e-01	4.297906e-01	4.303907e-01	4.310171e-01	4.316815e-01	4.323303e-01	4.330819e-01	4.337686e-01	4.345434e-01	4.328809e-01	4.294322e-01	4.296769e-01	4.346687e-01	4.407798e-01	4.455627e-01	4.486182e-01	4.504009e-01	4.514155e-01	4.519517e-01	4.210397e-01	4.210445e-01	4.210493e-01	4.210603e-01	4.210841e-01	4.211410e-01	4.212465e-01	4.214373e-01	4.217259e-01	4.221520e-01	4.226881e-01	4.233544e-01	4.240645e-01	4.248910e-01	4.258095e-01	4.270232e-01	4.285075e-01	4.301072e-01	4.289958e-01	4.263497e-01	4.279191e-01	4.340042e-01	4.405933e-01	4.455148e-01	4.486075e-01	4.503992e-01	4.514153e-01	4.519516e-01	4.142914e-01	4.142961e-01	4.143018e-01	4.143165e-01	4.143456e-01	4.144109e-01	4.145271e-01	4.147360e-01	4.150500e-01	4.155206e-01	4.161149e-01	4.168787e-01	4.177129e-01	4.187707e-01	4.199912e-01	4.216721e-01	4.237376e-01	4.255585e-01	4.244522e-01	4.225107e-01	4.256759e-01	4.331727e-01	4.403903e-01	4.454712e-01	4.485979e-01	4.503975e-01	4.514150e-01	4.519515e-01	4.141481e-01	4.141374e-01	4.141237e-01	4.141096e-01	4.141040e-01	4.141253e-01	4.141960e-01	4.143591e-01	4.146398e-01	4.150904e-01	4.156826e-01	4.164524e-01	4.172865e-01	4.183443e-01	4.194563e-01	4.209868e-01	4.225176e-01	4.230341e-01	4.206695e-01	4.187542e-01	4.232181e-01	4.321535e-01	4.401311e-01	4.454227e-01	4.485891e-01	4.503960e-01	4.514147e-01	4.519514e-01	4.181253e-01	4.180725e-01	4.180112e-01	4.179240e-01	4.178365e-01	4.177543e-01	4.177240e-01	4.177788e-01	4.179770e-01	4.183435e-01	4.188715e-01	4.195203e-01	4.201952e-01	4.209475e-01	4.215988e-01	4.224450e-01	4.225054e-01	4.210339e-01	4.173762e-01	4.158459e-01	4.212804e-01	4.312030e-01	4.398405e-01	4.453631e-01	4.485791e-01	4.503944e-01	4.514145e-01	4.519513e-01	4.003454e-01	4.002777e-01	4.002137e-01	4.001106e-01	4.000357e-01	3.999622e-01	3.999978e-01	4.001244e-01	4.004738e-01	4.009593e-01	4.016519e-01	4.023253e-01	4.030783e-01	4.037581e-01	4.045341e-01	4.053646e-01	4.050194e-01	4.052365e-01	4.061863e-01	4.107481e-01	4.195389e-01	4.305131e-01	4.395957e-01	4.453037e-01	4.485682e-01	4.503927e-01	4.514141e-01	4.519512e-01	3.242124e-01	3.242441e-01	3.243377e-01	3.244911e-01	3.247764e-01	3.251894e-01	3.258318e-01	3.266490e-01	3.277310e-01	3.288662e-01	3.301374e-01	3.312182e-01	3.325314e-01	3.338005e-01	3.360699e-01	3.390487e-01	3.450405e-01	3.580137e-01	3.762925e-01	3.981812e-01	4.162253e-01	4.297881e-01	4.393974e-01	4.452524e-01	4.485578e-01	4.503910e-01	4.514138e-01	4.519511e-01	2.749454e-01	2.751190e-01	2.753855e-01	2.757539e-01	2.762762e-01	2.769134e-01	2.777233e-01	2.785772e-01	2.795176e-01	2.803213e-01	2.811426e-01	2.818482e-01	2.829588e-01	2.844260e-01	2.873046e-01	2.919597e-01	3.021979e-01	3.199590e-01	3.464015e-01	3.819353e-01	4.113629e-01	4.288155e-01	4.392048e-01	4.452076e-01	4.485482e-01	4.503893e-01	4.514134e-01	4.519511e-01	2.777944e-01	2.779098e-01	2.780655e-01	2.782597e-01	2.784868e-01	2.787110e-01	2.789105e-01	2.790318e-01	2.790881e-01	2.791006e-01	2.792281e-01	2.796172e-01	2.805278e-01	2.821430e-01	2.850368e-01	2.899240e-01	2.988685e-01	3.126943e-01	3.348455e-01	3.707148e-01	4.066523e-01	4.277412e-01	4.390118e-01	4.451680e-01	4.485395e-01	4.503876e-01	4.514131e-01	4.519510e-01	2.859095e-01	2.859275e-01	2.859417e-01	2.859451e-01	2.859283e-01	2.858820e-01	2.858053e-01	2.857205e-01	2.856779e-01	2.857669e-01	2.860878e-01	2.867502e-01	2.878852e-01	2.896882e-01	2.926650e-01	2.972198e-01	3.048528e-01	3.156990e-01	3.339762e-01	3.659751e-01	4.031715e-01	4.267649e-01	4.388335e-01	4.451344e-01	4.485319e-01	4.503860e-01	4.514127e-01	4.519510e-01	2.918142e-01	2.918128e-01	2.918061e-01	2.917955e-01	2.917791e-01	2.917693e-01	2.917738e-01	2.918332e-01	2.919675e-01	2.922451e-01	2.926743e-01	2.933682e-01	2.943895e-01	2.960521e-01	2.986708e-01	3.027711e-01	3.095490e-01	3.191340e-01	3.361526e-01	3.652999e-01	4.011208e-01	4.259955e-01	4.386838e-01	4.451085e-01	4.485258e-01	4.503847e-01	4.514124e-01	4.519510e-01	2.949289e-01	2.949361e-01	2.949449e-01	2.949627e-01	2.949879e-01	2.950382e-01	2.951110e-01	2.952418e-01	2.954178e-01	2.957067e-01	2.960854e-01	2.967318e-01	2.976617e-01	2.993045e-01	3.017703e-01	3.058445e-01	3.123852e-01	3.218427e-01	3.391024e-01	3.667581e-01	4.003399e-01	4.254774e-01	4.385720e-01	4.450912e-01	4.485216e-01	4.503836e-01	4.514121e-01	4.519512e-01	2.973658e-01	2.973774e-01	2.973931e-01	2.974212e-01	2.974588e-01	2.975215e-01	2.976005e-01	2.977273e-01	2.978817e-01	2.981426e-01	2.984849e-01	2.991211e-01	3.000175e-01	3.016728e-01	3.040335e-01	3.081876e-01	3.146193e-01	3.244285e-01	3.425881e-01	3.694493e-01	4.006011e-01	4.252224e-01	4.385034e-01	4.450830e-01	4.485195e-01	4.503830e-01	4.514120e-01	4.519514e-01	2.995717e-01	2.995822e-01	2.995971e-01	2.996225e-01	2.996574e-01	2.997129e-01	2.997839e-01	2.998956e-01	3.000399e-01	3.002887e-01	3.006376e-01	3.012806e-01	3.022015e-01	3.038993e-01	3.062907e-01	3.107023e-01	3.171747e-01	3.276577e-01	3.468215e-01	3.729858e-01	4.016735e-01	4.252223e-01	4.384814e-01	4.450847e-01	4.485200e-01	4.503831e-01	4.514121e-01	4.519517e-01	3.015332e-01	3.015428e-01	3.015581e-01	3.015819e-01	3.016184e-01	3.016718e-01	3.017481e-01	3.018583e-01	3.020200e-01	3.022725e-01	3.026662e-01	3.033229e-01	3.043424e-01	3.060999e-01	3.086689e-01	3.133830e-01	3.199858e-01	3.314836e-01	3.517104e-01	3.771055e-01	4.033424e-01	4.254549e-01	4.385070e-01	4.450966e-01	4.485234e-01	4.503839e-01	4.514125e-01	4.519523e-01	3.033455e-01	3.033550e-01	3.033719e-01	3.033962e-01	3.034371e-01	3.034915e-01	3.035775e-01	3.036883e-01	3.038706e-01	3.041221e-01	3.045652e-01	3.052239e-01	3.063776e-01	3.081657e-01	3.110457e-01	3.160607e-01	3.230215e-01	3.359615e-01	3.572138e-01	3.816385e-01	4.054251e-01	4.258902e-01	4.385806e-01	4.451195e-01	4.485302e-01	4.503859e-01	4.514133e-01	4.519532e-01	3.047468e-01	3.047574e-01	3.047767e-01	3.048037e-01	3.048501e-01	3.049095e-01	3.050054e-01	3.051228e-01	3.053242e-01	3.055869e-01	3.060824e-01	3.067745e-01	3.080933e-01	3.099665e-01	3.133425e-01	3.186472e-01	3.263154e-01	3.410935e-01	3.632320e-01	3.864111e-01	4.077662e-01	4.264950e-01	4.387018e-01	4.451543e-01	4.485409e-01	4.503894e-01	4.514148e-01	4.519546e-01	3.058060e-01	3.058197e-01	3.058424e-01	3.058760e-01	3.059292e-01	3.060008e-01	3.061077e-01	3.062462e-01	3.064673e-01	3.067750e-01	3.073259e-01	3.081289e-01	3.096240e-01	3.117248e-01	3.156714e-01	3.212157e-01	3.300800e-01	3.469879e-01	3.696864e-01	3.912707e-01	4.102568e-01	4.272399e-01	4.388707e-01	4.452026e-01	4.485566e-01	4.503948e-01	4.514171e-01	4.519566e-01	3.068912e-01	3.069071e-01	3.069312e-01	3.069701e-01	3.070260e-01	3.071084e-01	3.072184e-01	3.073791e-01	3.076055e-01	3.079700e-01	3.085469e-01	3.095044e-01	3.111008e-01	3.135326e-01	3.179164e-01	3.237959e-01	3.345219e-01	3.536646e-01	3.763942e-01	3.960861e-01	4.128177e-01	4.281003e-01	4.390882e-01	4.452665e-01	4.485783e-01	4.504028e-01	4.514207e-01	4.519595e-01	3.075739e-01	3.075912e-01	3.076165e-01	3.076598e-01	3.077188e-01	3.078110e-01	3.079250e-01	3.081062e-01	3.083392e-01	3.087605e-01	3.093618e-01	3.104965e-01	3.121687e-01	3.150967e-01	3.198667e-01	3.266068e-01	3.399377e-01	3.610990e-01	3.831875e-01	4.008034e-01	4.154052e-01	4.290598e-01	4.393568e-01	4.453489e-01	4.486076e-01	4.504142e-01	4.514259e-01	4.519634e-01	3.074671e-01	3.074888e-01	3.075213e-01	3.075742e-01	3.076480e-01	3.077575e-01	3.078963e-01	3.081067e-01	3.083856e-01	3.088760e-01	3.095877e-01	3.109380e-01	3.128637e-01	3.165184e-01	3.217869e-01	3.302034e-01	3.466362e-01	3.692243e-01	3.899640e-01	4.053951e-01	4.179980e-01	4.301091e-01	4.396808e-01	4.454537e-01	4.486466e-01	4.504302e-01	4.514333e-01	4.519688e-01	3.072414e-01	3.072682e-01	3.073105e-01	3.073737e-01	3.074666e-01	3.075923e-01	3.077660e-01	3.080024e-01	3.083586e-01	3.089168e-01	3.098371e-01	3.113984e-01	3.138261e-01	3.182053e-01	3.241833e-01	3.351580e-01	3.547449e-01	3.778264e-01	3.966257e-01	4.098492e-01	4.205909e-01	4.312445e-01	4.400656e-01	4.455857e-01	4.486979e-01	4.504522e-01	4.514437e-01	4.519762e-01	3.072453e-01	3.072752e-01	3.073239e-01	3.073936e-01	3.075004e-01	3.076380e-01	3.078410e-01	3.081021e-01	3.085378e-01	3.091687e-01	3.103308e-01	3.120882e-01	3.151815e-01	3.201437e-01	3.274450e-01	3.418397e-01	3.641331e-01	3.866133e-01	4.031027e-01	4.141628e-01	4.231824e-01	4.324647e-01	4.405176e-01	4.457505e-01	4.487647e-01	4.504819e-01	4.514581e-01	4.519863e-01	3.069957e-01	3.070297e-01	3.070843e-01	3.071645e-01	3.072846e-01	3.074439e-01	3.076735e-01	3.079827e-01	3.084894e-01	3.092526e-01	3.106452e-01	3.127407e-01	3.166533e-01	3.223959e-01	3.321535e-01	3.505196e-01	3.745594e-01	3.953899e-01	4.093595e-01	4.183427e-01	4.257732e-01	4.337705e-01	4.410434e-01	4.459544e-01	4.488508e-01	4.505215e-01	4.514777e-01	4.519998e-01	3.061477e-01	3.061941e-01	3.062640e-01	3.063701e-01	3.065191e-01	3.067276e-01	3.070078e-01	3.074204e-01	3.080421e-01	3.090780e-01	3.107876e-01	3.136230e-01	3.185335e-01	3.256993e-01	3.390844e-01	3.612396e-01	3.856055e-01	4.039869e-01	4.153684e-01	4.223952e-01	4.283660e-01	4.351626e-01	4.416491e-01	4.462040e-01	4.489605e-01	4.505735e-01	4.515040e-01	4.520177e-01	3.058838e-01	3.059434e-01	3.060304e-01	3.061626e-01	3.063437e-01	3.066025e-01	3.069461e-01	3.074764e-01	3.082632e-01	3.096360e-01	3.117941e-01	3.156011e-01	3.214960e-01	3.310056e-01	3.487757e-01	3.737614e-01	3.968490e-01	4.122942e-01	4.211191e-01	4.263282e-01	4.309625e-01	4.366383e-01	4.423379e-01	4.465051e-01	4.490981e-01	4.506406e-01	4.515384e-01	4.520412e-01	3.062782e-01	3.063466e-01	3.064482e-01	3.065999e-01	3.068129e-01	3.071145e-01	3.075342e-01	3.081795e-01	3.091852e-01	3.108981e-01	3.136608e-01	3.184008e-01	3.257067e-01	3.389447e-01	3.613074e-01	3.874645e-01	4.079230e-01	4.202226e-01	4.266045e-01	4.301460e-01	4.335574e-01	4.381878e-01	4.431090e-01	4.468619e-01	4.492675e-01	4.507254e-01	4.515828e-01	4.520713e-01	3.065050e-01	3.065872e-01	3.067128e-01	3.068954e-01	3.071588e-01	3.075237e-01	3.080537e-01	3.088509e-01	3.101474e-01	3.122816e-01	3.158699e-01	3.219070e-01	3.320742e-01	3.503038e-01	3.763697e-01	4.015674e-01	4.185843e-01	4.277158e-01	4.318192e-01	4.338442e-01	4.361368e-01	4.397944e-01	4.439563e-01	4.472753e-01	4.494715e-01	4.508300e-01	4.516386e-01	4.521091e-01	3.065137e-01	3.066214e-01	3.067844e-01	3.070162e-01	3.073497e-01	3.078092e-01	3.084929e-01	3.095345e-01	3.112855e-01	3.142019e-01	3.192915e-01	3.278826e-01	3.425105e-01	3.657079e-01	3.932790e-01	4.154991e-01	4.286651e-01	4.347356e-01	4.367498e-01	4.374024e-01	4.386767e-01	4.414349e-01	4.448673e-01	4.477422e-01	4.497105e-01	4.509557e-01	4.517070e-01	4.521551e-01	3.075078e-01	3.076850e-01	3.079361e-01	3.082913e-01	3.087967e-01	3.095117e-01	3.105857e-01	3.122545e-01	3.150064e-01	3.195232e-01	3.270538e-01	3.391314