# vtk DataFile Version 3.0
vtk output
ASCII
DATASET UNSTRUCTURED_GRID
POINTS 3500 double
4.599960e-03	8.575306e-03	0.0	1.346558e-02	1.463928e-02	0.0	2.404880e-02	1.939218e-02	0.0	3.583427e-02	2.349549e-02	0.0	4.869120e-02	2.723688e-02	0.0	6.260621e-02	3.069083e-02	0.0	7.756702e-02	3.397439e-02	0.0	9.358887e-02	3.710917e-02	0.0	1.106859e-01	4.010613e-02	0.0	1.288684e-01	4.296933e-02	0.0	1.481437e-01	4.567388e-02	0.0	1.685062e-01	4.822366e-02	0.0	1.899422e-01	5.061608e-02	0.0	2.124285e-01	5.284190e-02	0.0	2.359307e-01	5.488881e-02	0.0	2.604026e-01	5.674185e-02	0.0	2.857856e-01	5.838637e-02	0.0	3.120101e-01	5.977994e-02	0.0	3.389913e-01	6.092710e-02	0.0	3.666343e-01	6.181366e-02	0.0	3.948339e-01	6.242546e-02	0.0	4.234753e-01	6.275064e-02	0.0	4.524362e-01	6.275959e-02	0.0	4.815878e-01	6.240499e-02	0.0	5.107972e-01	6.168793e-02	0.0	5.399299e-01	6.058721e-02	0.0	5.688521e-01	5.909495e-02	0.0	5.974342e-01	5.722545e-02	0.0	6.255514e-01	5.498580e-02	0.0	6.530955e-01	5.248494e-02	0.0	6.799649e-01	4.977646e-02	0.0	7.060687e-01	4.690384e-02	0.0	7.313276e-01	4.390575e-02	0.0	7.556746e-01	4.081736e-02	0.0	7.790549e-01	3.766790e-02	0.0	8.014270e-01	3.449174e-02	0.0	8.227632e-01	3.132858e-02	0.0	8.430458e-01	2.820510e-02	0.0	8.622679e-01	2.514452e-02	0.0	8.804315e-01	2.216241e-02	0.0	8.975472e-01	1.927131e-02	0.0	9.136331e-01	1.647995e-02	0.0	9.287139e-01	1.379581e-02	0.0	9.428180e-01	1.121632e-02	0.0	9.559812e-01	8.752049e-03	0.0	9.682411e-01	6.404159e-03	0.0	9.796369e-01	4.167646e-03	0.0	9.902099e-01	2.038145e-03	0.0	0.000000e+00	0.000000e+00	0.0	1.000000e+00	0.000000e+00	0.0	9.900132e-01	5.126793e-04	0.0	9.792361e-01	9.097207e-04	0.0	9.676272e-01	1.147607e-03	0.0	9.551475e-01	1.201755e-03	0.0	9.417606e-01	1.044884e-03	0.0	9.274336e-01	6.354951e-04	0.0	9.121373e-01	-3.572738e-05	0.0	8.958466e-01	-9.782612e-04	0.0	8.785419e-01	-2.206537e-03	0.0	8.602100e-01	-3.729850e-03	0.0	8.408449e-01	-5.553776e-03	0.0	8.204492e-01	-7.680635e-03	0.0	7.990344e-01	-1.010828e-02	0.0	7.766231e-01	-1.283945e-02	0.0	7.532487e-01	-1.586895e-02	0.0	7.289536e-01	-1.917259e-02	0.0	7.037909e-01	-2.271610e-02	0.0	6.778244e-01	-2.645443e-02	0.0	6.511282e-01	-3.033539e-02	0.0	6.237869e-01	-3.429849e-02	0.0	5.958939e-01	-3.827203e-02	0.0	5.675504e-01	-4.217169e-02	0.0	5.388666e-01	-4.591711e-02	0.0	5.099572e-01	-4.940876e-02	0.0	4.809410e-01	-5.253307e-02	0.0	4.519416e-01	-5.517319e-02	0.0	4.230833e-01	-5.716187e-02	0.0	3.945039e-01	-5.847304e-02	0.0	3.663379e-01	-5.910883e-02	0.0	3.387121e-01	-5.910436e-02	0.0	3.117421e-01	-5.853806e-02	0.0	2.855283e-01	-5.750994e-02	0.0	2.601563e-01	-5.610768e-02	0.0	2.356942e-01	-5.444571e-02	0.0	2.121999e-01	-5.256201e-02	0.0	1.897194e-01	-5.048030e-02	0.0	1.682867e-01	-4.821759e-02	0.0	1.479247e-01	-4.578983e-02	0.0	1.286478e-01	-4.319498e-02	0.0	1.104622e-01	-4.042725e-02	0.0	9.336143e-02	-3.750895e-02	0.0	7.733658e-02	-3.443241e-02	0.0	6.237669e-02	-3.117586e-02	0.0	4.847116e-02	-2.770556e-02	0.0	3.564495e-02	-2.387479e-02	0.0	2.390975e-02	-1.963905e-02	0.0	1.339668e-02	-1.473681e-02	0.0	4.590063e-03	-8.585220e-03	0.0	1.010000e+00	0.000000e+00	0.0	1.020376e+00	0.000000e+00	0.0	1.031520e+00	0.000000e+00	0.0	1.043850e+00	0.000000e+00	0.0	1.057831e+00	0.000000e+00	0.0	1.073989e+00	0.000000e+00	0.0	1.092932e+00	0.000000e+00	0.0	1.115373e+00	0.000000e+00	0.0	1.142158e+00	0.000000e+00	0.0	1.174294e+00	0.000000e+00	0.0	1.212991e+00	0.000000e+00	0.0	1.259706e+00	0.000000e+00	0.0	1.316198e+00	0.000000e+00	0.0	1.384593e+00	0.000000e+00	0.0	1.467465e+00	0.000000e+00	0.0	1.567935e+00	0.000000e+00	0.0	1.689785e+00	0.000000e+00	0.0	1.837601e+00	0.000000e+00	0.0	2.016949e+00	0.000000e+00	0.0	2.234579e+00	0.000000e+00	0.0	2.498684e+00	0.000000e+00	0.0	2.819206e+00	0.000000e+00	0.0	3.208212e+00	0.000000e+00	0.0	3.680345e+00	0.000000e+00	0.0	4.253377e+00	0.000000e+00	0.0	4.948882e+00	0.000000e+00	0.0	5.793041e+00	0.000000e+00	0.0	6.817631e+00	0.000000e+00	0.0	8.061223e+00	0.000000e+00	0.0	9.570631e+00	0.000000e+00	0.0	1.140268e+01	0.000000e+00	0.0	1.362633e+01	0.000000e+00	0.0	1.632529e+01	0.000000e+00	0.0	1.960116e+01	0.000000e+00	0.0	2.357727e+01	0.000000e+00	0.0	2.840329e+01	0.000000e+00	0.0	3.426089e+01	0.000000e+00	0.0	4.137058e+01	0.000000e+00	0.0	5.000000e+01	0.000000e+00	0.0	5.000000e+01	1.000000e-03	0.0	5.000000e+01	2.346199e-03	0.0	5.000000e+01	4.504648e-03	0.0	5.000000e+01	8.222602e-03	0.0	5.000000e+01	1.478721e-02	0.0	5.000000e+01	2.647113e-02	0.0	5.000000e+01	4.731932e-02	0.0	5.000000e+01	8.454940e-02	0.0	5.000000e+01	1.510504e-01	0.0	5.000000e+01	2.698448e-01	0.0	5.000000e+01	4.820591e-01	0.0	5.000000e+01	8.611618e-01	0.0	5.000000e+01	1.538397e+00	0.0	5.000000e+01	2.748224e+00	0.0	5.000000e+01	4.909483e+00	0.0	5.000000e+01	8.770399e+00	0.0	5.000000e+01	1.566762e+01	0.0	5.000000e+01	2.798894e+01	0.0	5.000000e+01	5.000000e+01	0.0	5.000000e+01	-1.000000e-03	0.0	5.000000e+01	-2.346199e-03	0.0	5.000000e+01	-4.504648e-03	0.0	5.000000e+01	-8.222602e-03	0.0	5.000000e+01	-1.478721e-02	0.0	5.000000e+01	-2.647113e-02	0.0	5.000000e+01	-4.731932e-02	0.0	5.000000e+01	-8.454940e-02	0.0	5.000000e+01	-1.510504e-01	0.0	5.000000e+01	-2.698448e-01	0.0	5.000000e+01	-4.820591e-01	0.0	5.000000e+01	-8.611618e-01	0.0	5.000000e+01	-1.538397e+00	0.0	5.000000e+01	-2.748224e+00	0.0	5.000000e+01	-4.909483e+00	0.0	5.000000e+01	-8.770399e+00	0.0	5.000000e+01	-1.566762e+01	0.0	5.000000e+01	-2.798894e+01	0.0	5.000000e+01	-5.000000e+01	0.0	1.000000e+00	1.000000e-03	0.0	1.000000e+00	2.346199e-03	0.0	1.000000e+00	4.504648e-03	0.0	1.000000e+00	8.222602e-03	0.0	1.000000e+00	1.478721e-02	0.0	1.000000e+00	2.647113e-02	0.0	1.000000e+00	4.731932e-02	0.0	1.000000e+00	8.454940e-02	0.0	1.000000e+00	1.510504e-01	0.0	1.000000e+00	2.698448e-01	0.0	1.000000e+00	4.820591e-01	0.0	1.000000e+00	8.611618e-01	0.0	1.000000e+00	1.538397e+00	0.0	1.000000e+00	2.748224e+00	0.0	1.000000e+00	4.909483e+00	0.0	1.000000e+00	8.770399e+00	0.0	1.000000e+00	1.566762e+01	0.0	1.000000e+00	2.798894e+01	0.0	1.000000e+00	5.000000e+01	0.0	1.000000e+00	-1.000000e-03	0.0	1.000000e+00	-2.346199e-03	0.0	1.000000e+00	-4.504648e-03	0.0	1.000000e+00	-8.222602e-03	0.0	1.000000e+00	-1.478721e-02	0.0	1.000000e+00	-2.647113e-02	0.0	1.000000e+00	-4.731932e-02	0.0	1.000000e+00	-8.454940e-02	0.0	1.000000e+00	-1.510504e-01	0.0	1.000000e+00	-2.698448e-01	0.0	1.000000e+00	-4.820591e-01	0.0	1.000000e+00	-8.611618e-01	0.0	1.000000e+00	-1.538397e+00	0.0	1.000000e+00	-2.748224e+00	0.0	1.000000e+00	-4.909483e+00	0.0	1.000000e+00	-8.770399e+00	0.0	1.000000e+00	-1.566762e+01	0.0	1.000000e+00	-2.798894e+01	0.0	1.000000e+00	-5.000000e+01	0.0	1.010000e+00	5.000000e+01	0.0	1.020376e+00	5.000000e+01	0.0	1.031520e+00	5.000000e+01	0.0	1.043850e+00	5.000000e+01	0.0	1.057831e+00	5.000000e+01	0.0	1.073989e+00	5.000000e+01	0.0	1.092932e+00	5.000000e+01	0.0	1.115373e+00	5.000000e+01	0.0	1.142158e+00	5.000000e+01	0.0	1.174294e+00	5.000000e+01	0.0	1.212991e+00	5.000000e+01	0.0	1.259706e+00	5.000000e+01	0.0	1.316198e+00	5.000000e+01	0.0	1.384593e+00	5.000000e+01	0.0	1.467465e+00	5.000000e+01	0.0	1.567935e+00	5.000000e+01	0.0	1.689785e+00	5.000000e+01	0.0	1.837601e+00	5.000000e+01	0.0	2.016949e+00	5.000000e+01	0.0	2.234579e+00	5.000000e+01	0.0	2.498684e+00	5.000000e+01	0.0	2.819206e+00	5.000000e+01	0.0	3.208212e+00	5.000000e+01	0.0	3.680345e+00	5.000000e+01	0.0	4.253377e+00	5.000000e+01	0.0	4.948882e+00	5.000000e+01	0.0	5.793041e+00	5.000000e+01	0.0	6.817631e+00	5.000000e+01	0.0	8.061223e+00	5.000000e+01	0.0	9.570631e+00	5.000000e+01	0.0	1.140268e+01	5.000000e+01	0.0	1.362633e+01	5.000000e+01	0.0	1.632529e+01	5.000000e+01	0.0	1.960116e+01	5.000000e+01	0.0	2.357727e+01	5.000000e+01	0.0	2.840329e+01	5.000000e+01	0.0	3.426089e+01	5.000000e+01	0.0	4.137058e+01	5.000000e+01	0.0	1.010000e+00	-5.000000e+01	0.0	1.020376e+00	-5.000000e+01	0.0	1.031520e+00	-5.000000e+01	0.0	1.043850e+00	-5.000000e+01	0.0	1.057831e+00	-5.000000e+01	0.0	1.073989e+00	-5.000000e+01	0.0	1.092932e+00	-5.000000e+01	0.0	1.115373e+00	-5.000000e+01	0.0	1.142158e+00	-5.000000e+01	0.0	1.174294e+00	-5.000000e+01	0.0	1.212991e+00	-5.000000e+01	0.0	1.259706e+00	-5.000000e+01	0.0	1.316198e+00	-5.000000e+01	0.0	1.384593e+00	-5.000000e+01	0.0	1.467465e+00	-5.000000e+01	0.0	1.567935e+00	-5.000000e+01	0.0	1.689785e+00	-5.000000e+01	0.0	1.837601e+00	-5.000000e+01	0.0	2.016949e+00	-5.000000e+01	0.0	2.234579e+00	-5.000000e+01	0.0	2.498684e+00	-5.000000e+01	0.0	2.819206e+00	-5.000000e+01	0.0	3.208212e+00	-5.000000e+01	0.0	3.680345e+00	-5.000000e+01	0.0	4.253377e+00	-5.000000e+01	0.0	4.948882e+00	-5.000000e+01	0.0	5.793041e+00	-5.000000e+01	0.0	6.817631e+00	-5.000000e+01	0.0	8.061223e+00	-5.000000e+01	0.0	9.570631e+00	-5.000000e+01	0.0	1.140268e+01	-5.000000e+01	0.0	1.362633e+01	-5.000000e+01	0.0	1.632529e+01	-5.000000e+01	0.0	1.960116e+01	-5.000000e+01	0.0	2.357727e+01	-5.000000e+01	0.0	2.840329e+01	-5.000000e+01	0.0	3.426089e+01	-5.000000e+01	0.0	4.137058e+01	-5.000000e+01	0.0	9.900000e-01	5.000000e+01	0.0	9.782470e-01	5.000000e+01	0.0	9.644339e-01	4.999999e+01	0.0	9.482003e-01	4.999997e+01	0.0	9.291225e-01	4.999995e+01	0.0	9.067032e-01	4.999991e+01	0.0	8.803583e-01	4.999986e+01	0.0	8.494021e-01	4.999977e+01	0.0	8.130298e-01	4.999965e+01	0.0	7.702971e-01	4.999947e+01	0.0	7.200962e-01	4.999922e+01	0.0	6.611282e-01	4.999885e+01	0.0	5.918707e-01	4.999833e+01	0.0	5.105401e-01	4.999760e+01	0.0	4.150483e-01	4.999658e+01	0.0	3.029525e-01	4.999514e+01	0.0	1.713973e-01	4.999313e+01	0.0	1.704879e-02	4.999034e+01	0.0	-1.639811e-01	4.998645e+01	0.0	-3.762199e-01	4.998106e+01	0.0	-6.249298e-01	4.997359e+01	0.0	-9.162140e-01	4.996327e+01	0.0	-1.257132e+00	4.994903e+01	0.0	-1.655823e+00	4.992942e+01	0.0	-2.121635e+00	4.990246e+01	0.0	-2.665249e+00	4.986548e+01	0.0	-3.298796e+00	4.981486e+01	0.0	-4.035948e+00	4.974575e+01	0.0	-4.891965e+00	4.965163e+01	0.0	-5.883661e+00	4.952389e+01	0.0	-7.029259e+00	4.935110e+01	0.0	-8.348068e+00	4.911836e+01	0.0	-9.859923e+00	4.880637e+01	0.0	-1.158428e+01	4.839045e+01	0.0	-1.353887e+01	4.783954e+01	0.0	-1.573784e+01	4.711523e+01	0.0	-1.818921e+01	4.617114e+0
[...]
POINT_DATA 3500

SCALARS Density double 1
LOOKUP_TABLE default
1.159523e+00	9.578237e-01	8.936905e-01	8.716852e-01	8.630068e-01	8.588494e-01	8.578834e-01	8.554636e-01	8.515339e-01	8.472647e-01	8.434538e-01	8.401429e-01	8.370378e-01	8.341407e-01	8.312743e-01	8.280364e-01	8.236692e-01	8.190542e-01	8.148218e-01	8.107504e-01	8.066784e-01	8.029375e-01	7.974324e-01	7.890574e-01	7.739434e-01	7.728344e-01	8.173396e-01	9.784665e-01	1.110167e+00	1.118958e+00	1.105634e+00	1.108741e+00	1.122220e+00	1.135139e+00	1.146198e+00	1.157726e+00	1.169738e+00	1.181427e+00	1.192752e+00	1.203829e+00	1.214899e+00	1.225919e+00	1.237230e+00	1.248650e+00	1.261507e+00	1.274284e+00	1.291281e+00	1.296419e+00	1.575077e+00	1.299544e+00	1.409280e+00	1.407823e+00	1.410762e+00	1.410996e+00	1.411891e+00	1.410238e+00	1.408042e+00	1.404751e+00	1.400769e+00	1.395964e+00	1.390484e+00	1.384397e+00	1.377669e+00	1.369943e+00	1.361109e+00	1.351172e+00	1.340158e+00	1.328083e+00	1.314862e+00	1.300423e+00	1.284917e+00	1.268312e+00	1.250429e+00	1.231134e+00	1.210834e+00	1.193405e+00	1.182111e+00	1.177417e+00	1.179680e+00	1.187798e+00	1.199808e+00	1.214092e+00	1.228347e+00	1.241227e+00	1.253381e+00	1.265228e+00	1.276997e+00	1.289143e+00	1.302719e+00	1.317697e+00	1.333917e+00	1.351699e+00	1.370982e+00	1.395930e+00	1.427579e+00	1.468805e+00	1.548630e+00	1.643496e+00	1.300255e+00	1.299976e+00	1.298695e+00	1.296248e+00	1.294061e+00	1.292168e+00	1.290407e+00	1.288714e+00	1.287017e+00	1.285226e+00	1.283260e+00	1.281050e+00	1.278555e+00	1.275786e+00	1.272856e+00	1.270072e+00	1.268012e+00	1.267496e+00	1.269307e+00	1.273677e+00	1.279807e+00	1.285964e+00	1.290428e+00	1.292587e+00	1.293060e+00	1.292862e+00	1.292636e+00	1.292538e+00	1.292500e+00	1.292456e+00	1.292401e+00	1.292347e+00	1.292304e+00	1.292272e+00	1.292247e+00	1.292219e+00	1.292197e+00	1.292117e+00	1.292030e+00	1.292033e+00	1.292031e+00	1.292023e+00	1.292008e+00	1.291997e+00	1.292013e+00	1.292072e+00	1.292159e+00	1.292194e+00	1.292051e+00	1.291673e+00	1.291228e+00	1.291075e+00	1.291413e+00	1.291977e+00	1.292306e+00	1.292228e+00	1.292172e+00	1.291695e+00	1.292028e+00	1.292027e+00	1.292027e+00	1.292028e+00	1.292028e+00	1.292028e+00	1.292029e+00	1.292029e+00	1.292030e+00	1.292032e+00	1.292036e+00	1.292042e+00	1.292057e+00	1.292075e+00	1.292129e+00	1.292176e+00	1.292307e+00	1.292417e+00	1.292895e+00	1.330071e+00	1.324195e+00	1.343389e+00	1.343049e+00	1.346659e+00	1.341924e+00	1.333916e+00	1.318952e+00	1.302369e+00	1.282320e+00	1.261073e+00	1.251724e+00	1.257371e+00	1.268981e+00	1.278736e+00	1.284807e+00	1.288196e+00	1.289906e+00	1.290579e+00	1.366208e+00	1.380256e+00	1.395186e+00	1.387705e+00	1.387291e+00	1.384492e+00	1.380009e+00	1.372357e+00	1.360938e+00	1.345440e+00	1.330971e+00	1.320560e+00	1.313108e+00	1.306968e+00	1.301904e+00	1.298187e+00	1.295750e+00	1.294373e+00	1.293717e+00	1.290578e+00	1.290576e+00	1.290575e+00	1.290574e+00	1.290572e+00	1.290570e+00	1.290568e+00	1.290566e+00	1.290564e+00	1.290561e+00	1.290557e+00	1.290553e+00	1.290549e+00	1.290544e+00	1.290538e+00	1.290531e+00	1.290524e+00	1.290515e+00	1.290505e+00	1.290494e+00	1.290481e+00	1.290467e+00	1.290452e+00	1.290437e+00	1.290420e+00	1.290405e+00	1.290391e+00	1.290381e+00	1.290378e+00	1.290384e+00	1.290404e+00	1.290442e+00	1.290505e+00	1.290591e+00	1.290721e+00	1.290869e+00	1.291116e+00	1.291331e+00	1.293718e+00	1.293719e+00	1.293720e+00	1.293721e+00	1.293722e+00	1.293723e+00	1.293725e+00	1.293727e+00	1.293729e+00	1.293731e+00	1.293734e+00	1.293737e+00	1.293740e+00	1.293744e+00	1.293749e+00	1.293755e+00	1.293762e+00	1.293769e+00	1.293778e+00	1.293788e+00	1.293800e+00	1.293813e+00	1.293828e+00	1.293845e+00	1.293862e+00	1.293881e+00	1.293899e+00	1.293916e+00	1.293929e+00	1.293934e+00	1.293929e+00	1.293908e+00	1.293866e+00	1.293799e+00	1.293695e+00	1.293570e+00	1.293367e+00	1.293182e+00	1.290580e+00	1.290582e+00	1.290583e+00	1.290585e+00	1.290587e+00	1.290589e+00	1.290591e+00	1.290594e+00	1.290597e+00	1.290600e+00	1.290603e+00	1.290607e+00	1.290612e+00	1.290617e+00	1.290622e+00	1.290628e+00	1.290635e+00	1.290643e+00	1.290652e+00	1.290661e+00	1.290671e+00	1.290683e+00	1.290698e+00	1.290716e+00	1.290737e+00	1.290761e+00	1.290790e+00	1.290824e+00	1.290864e+00	1.290911e+00	1.290966e+00	1.291030e+00	1.291105e+00	1.291190e+00	1.291285e+00	1.291389e+00	1.291500e+00	1.291614e+00	1.291726e+00	1.291833e+00	1.291931e+00	1.292015e+00	1.292087e+00	1.292144e+00	1.292190e+00	1.292225e+00	1.292252e+00	1.292275e+00	1.292294e+00	1.292313e+00	1.292335e+00	1.292362e+00	1.292396e+00	1.292438e+00	1.292489e+00	1.292551e+00	1.292622e+00	1.292701e+00	1.292786e+00	1.292874e+00	1.292962e+00	1.293048e+00	1.293129e+00	1.293203e+00	1.293271e+00	1.293330e+00	1.293382e+00	1.293428e+00	1.293467e+00	1.293500e+00	1.293529e+00	1.293554e+00	1.293575e+00	1.293594e+00	1.293610e+00	1.293623e+00	1.293635e+00	1.293646e+00	1.293655e+00	1.293663e+00	1.293670e+00	1.293676e+00	1.293682e+00	1.293686e+00	1.293691e+00	1.293694e+00	1.293698e+00	1.293700e+00	1.293703e+00	1.293705e+00	1.293707e+00	1.293709e+00	1.293711e+00	1.293712e+00	1.293714e+00	1.293715e+00	1.293716e+00	1.306835e+00	1.313491e+00	1.325032e+00	1.329597e+00	1.335771e+00	1.335009e+00	1.329119e+00	1.315373e+00	1.299629e+00	1.280099e+00	1.259412e+00	1.250788e+00	1.256983e+00	1.268861e+00	1.278709e+00	1.284803e+00	1.288195e+00	1.289906e+00	1.299282e+00	1.307083e+00	1.315048e+00	1.321552e+00	1.327729e+00	1.328159e+00	1.323424e+00	1.311015e+00	1.296415e+00	1.277590e+00	1.257574e+00	1.249761e+00	1.256565e+00	1.268734e+00	1.278682e+00	1.284799e+00	1.288195e+00	1.289906e+00	1.281610e+00	1.289280e+00	1.297483e+00	1.305691e+00	1.313433e+00	1.316930e+00	1.315318e+00	1.305420e+00	1.292565e+00	1.274732e+00	1.255527e+00	1.248629e+00	1.256113e+00	1.268600e+00	1.278653e+00	1.284795e+00	1.288195e+00	1.289906e+00	1.269011e+00	1.276968e+00	1.285671e+00	1.294469e+00	1.302699e+00	1.307269e+00	1.307209e+00	1.299240e+00	1.288200e+00	1.271527e+00	1.253257e+00	1.247380e+00	1.255620e+00	1.268456e+00	1.278622e+00	1.284791e+00	1.288195e+00	1.289905e+00	1.256198e+00	1.264227e+00	1.272961e+00	1.281813e+00	1.290313e+00	1.295912e+00	1.297696e+00	1.292030e+00	1.283168e+00	1.267909e+00	1.250734e+00	1.246003e+00	1.255085e+00	1.268302e+00	1.278590e+00	1.284787e+00	1.288194e+00	1.289905e+00	1.244832e+00	1.252876e+00	1.261614e+00	1.270562e+00	1.279324e+00	1.285482e+00	1.288306e+00	1.284363e+00	1.277597e+00	1.263876e+00	1.247938e+00	1.244489e+00	1.254505e+00	1.268138e+00	1.278555e+00	1.284782e+00	1.288194e+00	1.289905e+00	1.233481e+00	1.241466e+00	1.250145e+00	1.259102e+00	1.267958e+00	1.274467e+00	1.278179e+00	1.275924e+00	1.271375e+00	1.259371e+00	1.244837e+00	1.242825e+00	1.253878e+00	1.267964e+00	1.278518e+00	1.284777e+00	1.288193e+00	1.289904e+00	1.222412e+00	1.230340e+00	1.238976e+00	1.247974e+00	1.256936e+00	1.263730e+00	1.268036e+00	1.267104e+00	1.264627e+00	1.254392e+00	1.241408e+00	1.241000e+00	1.253202e+00	1.267780e+00	1.278480e+00	1.284771e+00	1.288193e+00	1.289904e+00	1.211250e+00	1.219097e+00	1.227665e+00	1.236687e+00	1.245699e+00	1.252699e+00	1.257458e+00	1.257727e+00	1.257294e+00	1.248896e+00	1.237616e+00	1.239002e+00	1.252473e+00	1.267585e+00	1.278439e+00	1.284765e+00	1.288192e+00	1.289903e+00	1.200051e+00	1.207801e+00	1.216292e+00	1.225359e+00	1.234421e+00	1.241625e+00	1.246721e+00	1.248017e+00	1.249487e+00	1.242890e+00	1.233439e+00	1.236823e+00	1.251693e+00	1.267381e+00	1.278396e+00	1.284759e+00	1.288191e+00	1.289903e+00	1.188573e+00	1.196211e+00	1.204614e+00	1.213744e+00	1.222843e+00	1.230245e+00	1.235606e+00	1.237883e+00	1.241186e+00	1.236338e+00	1.228838e+00	1.234448e+00	1.250860e+00	1.267168e+00	1.278352e+00	1.284752e+00	1.288191e+00	1.289902e+00	1.176700e+00	1.184211e+00	1.192522e+00	1.201752e+00	1.210892e+00	1.218548e+00	1.224164e+00	1.227436e+00	1.232456e+00	1.229221e+00	1.223765e+00	1.231855e+00	1.249969e+00	1.266948e+00	1.278306e+00	1.284745e+00	1.288190e+00	1.289901e+00	1.164461e+00	1.171822e+00	1.180050e+00	1.189424e+00	1.198649e+00	1.206651e+00	1.212500e+00	1.216808e+00	1.223383e+00	1.221541e+00	1.218193e+00	1.229027e+00	1.249005e+00	1.266716e+00	1.278261e+00	1.284737e+00	1.288188e+00	1.289901e+00	1.152638e+00	1.159790e+00	1.167955e+00	1.177488e+00	1.186842e+00	1.195173e+00	1.201091e+00	1.206397e+00	1.214245e+00	1.213414e+00	1.212179e+00	1.226015e+00	1.247984e+00	1.266464e+00	1.278212e+00	1.284730e+00	1.288188e+00	1.289900e+00	1.141176e+00	1.148026e+00	1.156141e+00	1.165795e+00	1.175275e+00	1.183726e+00	1.189524e+00	1.195978e+00	1.204898e+00	1.204659e+00	1.205654e+00	1.222880e+00	1.246966e+00	1.266206e+00	1.278156e+00	1.284722e+00	1.288186e+00	1.289899e+00	1.127774e+00	1.134300e+00	1.142433e+00	1.152243e+00	1.161927e+00	1.170400e+00	1.176435e+00	1.184647e+00	1.194501e+00	1.194458e+00	1.198049e+00	1.219413e+00	1.245974e+00	1.265975e+00	1.278102e+00	1.284711e+00	1.288185e+00	1.289899e+00	1.113590e+00	1.119858e+00	1.128113e+00	1.138258e+00	1.148342e+00	1.157010e+00	1.164058e+00	1.174229e+00	1.183799e+00	1.182887e+00	1.188962e+00	1.215142e+00	1.244834e+00	1.265765e+00	1.278060e+00	1.284702e+00	1.288183e+00	1.289898e+00	1.109533e+00	1.115566e+00	1.124012e+00	1.134695e+00	1.145121e+00	1.154024e+00	1.162116e+00	1.172286e+00	1.178006e+00	1.173407e+00	1.180180e+00	1.210341e+00	1.243372e+00	1.265502e+00	1.278021e+00	1.284695e+00	1.288182e+00	1.289897e+00	1.121451e+00	1.127056e+00	1.135689e+00	1.146952e+00	1.157151e+00	1.166096e+00	1.173847e+00	1.179932e+00	1.177919e+00	1.167938e+00	1.174719e+00	1.206654e+00	1.241885e+00	1.265166e+00	1.277969e+00	1.284688e+00	1.288180e+00	1.289896e+00	1.110559e+00	1.116613e+00	1.125533e+00	1.137478e+00	1.146803e+00	1.155962e+00	1.162078e+00	1.162617e+00	1.156758e+00	1.151340e+00	1.168990e+00	1.204636e+00	1.240892e+00	1.264865e+00	1.277912e+00	1.284679e+00	1.288179e+00	1.289896e+00	9.809665e-01	9.890751e-01	9.993567e-01	1.011972e+00	1.019985e+00	1.029264e+00	1.031627e+00	1.037316e+00	1.057908e+00	1.093569e+00	1.150732e+00	1.201377e+00	1.240164e+00	1.264643e+00	1.277863e+00	1.284671e+00	1.288178e+00	1.289896e+00	8.201971e-01	8.303127e-01	8.397114e-01	8.505371e-01	8.566410e-01	8.647038e-01	8.681453e-01	8.910927e-01	9.411408e-01	1.017449e+00	1.120910e+00	1.195390e+00	1.239238e+00	1.264450e+00	1.277822e+00	1.284665e+00	1.288177e+00	1.289896e+00	7.789531e-01	7.883524e-01	7.972839e-01	8.059996e-01	8.133954e-01	8.217110e-01	8.329880e-01	8.611919e-01	9.037040e-01	9.757391e-01	1.094531e+00	1.188662e+00	1.238151e+00	1.264271e+00	1.277787e+00	1.284660e+00	1.288177e+00	1.289897e+00	7.814157e-01	7.902784e-01	7.993104e-01	8.085751e-01	8.172616e-01	8.280978e-01	8.418831e-01	8.680716e-01	9.018329e-01	9.633721e-01	1.078016e+00	1.182803e+00	1.237087e+00	1.264117e+00	1.277762e+00	1.284658e+00	1.288178e+00	1.289898e+00	7.974963e-01	8.067632e-01	8.166266e-01	8.262857e-01	8.356309e-01	8.461906e-01	8.589075e-01	8.817354e-01	9.088999e-01	9.639005e-01	1.070535e+00	1.178401e+00	1.236170e+00	1.264004e+00	1.277750e+00	1.284659e+00	1.288181e+00	1.289901e+00	8.066345e-01	8.162604e-01	8.265169e-01	8.358452e-01	8.452484e-01	8.547834e-01	8.666952e-01	8.875660e-01	9.122552e-01	9.671016e-01	1.068847e+00	1.175572e+00	1.235475e+00	1.263942e+00	1.277756e+00	1.284667e+00	1.288186e+00	1.289905e+00	8.128083e-01	8.226076e-01	8.331582e-01	8.420447e-01	8.516662e-01	8.599887e-01	8.717899e-01	8.916110e-01	9.156100e-01	9.727178e-01	1.071449e+00	1.174458e+00	1.235088e+00	1.263947e+00	1.277785e+00	1.284683e+00	1.288194e+00	1.289911e+00	8.169774e-01	8.267793e-01	8.375659e-01	8.460319e-01	8.560391e-01	8.632652e-01	8.759919e-01	8.950908e-01	9.192880e-01	9.801213e-01	1.077127e+00	1.175051e+00	1.235083e+00	1.264039e+00	1.277844e+00	1.284710e+00	1.288208e+00	1.289921e+00	8.213161e-01	8.311952e-01	8.422519e-01	8.505612e-01	8.610633e-01	8.675497e-01	8.819160e-01	8.998949e-01	9.249586e-01	9.901827e-01	1.085600e+00	1.177381e+00	1.235550e+00	1.264245e+00	1.277942e+00	1.284752e+00	1.288227e+00	1.289934e+00	8.255259e-01	8.356162e-01	8.468040e-01	8.552127e-01	8.659612e-01	8.721222e-01	8.882933e-01	9.045104e-01	9.316719e-01	1.002375e+00	1.096265e+00	1.181264e+00	1.236542e+00	1.264595e+00	1.278089e+00	1.284815e+00	1.288256e+00	1.289953e+00	8.298021e-01	8.403202e-01	8.514506e-01	8.603966e-01	8.710283e-01	8.775786e-01	8.951791e-01	9.091072e-01	9.402609e-01	1.017121e+00	1.108894e+00	1.186582e+00	1.238113e+00	1.265123e+00	1.278300e+00	1.284904e+00	1.288296e+00	1.289979e+00	8.343180e-01	8.454378e-01	8.561981e-01	8.660788e-01	8.759016e-01	8.835324e-01	9.015384e-01	9.132823e-01	9.509301e-01	1.034261e+00	1.123049e+00	1.193142e+00	1.240283e+00	1.265860e+00	1.278589e+00	1.285028e+00	1.288352e+00	1.290014e+00	8.384834e-01	8.503220e-01	8.604518e-01	8.716278e-01	8.799559e-01	8.896684e-01	9.069751e-01	9.179152e-01	9.649464e-01	1.054280e+00	1.138585e+00	1.200815e+00	1.243070e+00	1.266840e+00	1.278974e+00	1.285193e+00	1.288428e+00	1.290061e+00	8.416158e-01	8.541986e-01	8.637281e-01	8.763838e-01	8.829208e-01	8.958864e-01	9.112804e-01	9.239183e-01	9.830231e-01	1.076928e+00	1.155068e+00	1.209365e+00	1.246442e+00	1.268085e+00	1.279471e+00	1.285410e+00	1.288529e+00	1.290124e+00	8.446519e-01	8.576782e-01	8.670492e-01	8.807979e-01	8.859200e-01	9.028135e-01	9.148819e-01	9.326723e-01	1.005684e+00	1.101726e+00	1.172231e+00	1.218581e+00	1.250347e+00	1.269608e+00	1.280096e+00	1.285688e+00	1.288660e+00	1.290205e+00	8.481880e-01	8.610022e-01	8.712088e-01	8.848195e-01	8.900963e-01	9.104340e-01	9.181238e-01	9.456054e-01	1.033140e+00	1.128110e+00	1.189747e+00	1.228204e+00	1.254683e+00	1.271396e+00	1.280856e+00	1.286032e+00	1.288825e+00	1.290306e+00	8.524158e-01	8.642962e-01	8.765732e-01	8.882606e-01	8.966214e-01	9.179645e-01	9.219842e-01	9.648660e-01	1.065858e+00	1.155601e+00	1.207317e+00	1.237991e+00	1.259327e+00	1.273417e+00	1.281748e+00	1.286446e+00	1.289027e+00	1.290431e+00	8.569430e-01	8.676686e-01	8.826915e-01	8.912257e-01	9.057351e-01	9.235806e-01	9.282949e-01	9.925742e-01	1.103040e+00	1.183172e+00	1.224467e+00	1.247650e+00	1.264120e+00	1.275614e+00	1.282757e+00	1.286928e+00	1.289267e+00	1.290578e+00	8.614214e-01	8.717411e-01	8.887362e-01	8.947350e-01	9.160553e-01	9.258195e-01	9.400692e-01	1.029565e+00	1.142827e+00	1.210076e+00	1.240767e+00	1.256906e+00	1.268896e+00	1.277911e+00	1.283855e+00	1.287466e+00	1.289542e+00	1.290745e+00	8.651993e-01	8.767619e-01	8.932844e-01	9.000347e-01	9.250581e-01	9.261286e-01	9.615065e-01	1.076480e+00	1.183677e+00	1.235592e+00	1.255800e+00	1.265499e+00	1.273488e+00	1.280222e+00	1.285004e+00	1.288045e+00	1.289845e+00	1.290928e+00	8.677347e-01	8.819600e-01	8.954023e-01	9.077147e-01	9.297595e-01	9.298289e-01	9.986068e-01	1.132066e+00	1.223297e+00	1.258903e+00	1.269216e+00	1.273243e+00	1.277765e+00	1.282466e+00	1.286161e+00	1.288644e+00	1.290165e+00	1.291118e+00	8.689715e-01	8.856788e-01	8.959213e-01	9.158393e-01	9.293547e-01	9.466400e-01	1.055003e+00	1.191688e+00	1.259663e+00	1.279295e+00	1.280773e+00	1.280006e+00	1.281628e+00	1.284574e+00	1.287286e+00	1.289243e+00	1.290492e+00	1.291309e+00	8.701567e-01	8.880503e-01	8.983829e-01	9.237121e-01	9.325591e-01	9.870112e-01	1.131372e+00	1.250213e+00	1.291444e+00	1.296340e+00	1.290394e+00	1.285749e+00	1.285028e+00	1.286503e+00	1.288350e+00	1.289823e+00	1.290813e+00	1.291494e+00	8.763869e-01	8.937358e-01	9.083719e-01	9.356167e-01	9.564840e-01	1.061645e+00	1.219989e+00	1.301296e+00	1.317433e+00	1.309892e+00	1.298133e+00	1.290523e+00	1.287972e+00	1.288236e+00	1.289334e+00	1.290372e+00	1.291121e+00	1.291666e+00	8.885255e-01	9.053333e-01	9.293778e-01	9.609252e-01	1.022269e+00	1.173788e+00	1.304750e+00	1.341960e+00	1.337279e+00	1.320203e+00	1.304206e+00	1.294460e+00	1.290505e+00	1.289778e+00	1.290232e+00	1.290881e+00	1.291409e+00	1.291823e+00	9.158733e-01	9.388284e-01	9.814675e-01	1.031436e+00	1.150072e+00	1.304604e+00	1.371136e+00	1.371413e+00	1.351355e+00	1.327735e+00	1.308951e+00	1.297734e+00	1.292696e+00	1.291150e+00	1.291048e+00	1.291351e+00	1.291676e+00	1.291964e+00	9.895525e-01	1.039033e+00	1.099846e+00	1.194423e+00	1.328498e+00	1.410011e+00	1.413114e+00	1.390231e+00	1.360661e+00	1.333149e+00	1.312737e+00	1.300515e+00	1.294621e+00	1.292385e+00	1.291795e+00	1.291787e+00	1.291925e+00	1.292092e+00	1.213173e+00	1.278767e+00	1.342855e+00	1.426050e+00	1.475389e+00	1.468614e+00	1.437677e+00	1.402354e+00	1.367003e+00	1.337353e+00	1.315977e+00	1.302984e+00	1.296365e+00	1.293520e+00	1.292490e+00	1.292195e+00	1.292157e+00	1.292209e+00	1.582873e+00	1.585418e+00	1.574886e+00	1.560041e+00	1.524122e+00	1.491020e+00	1.452779e+00	1.411301e+00	1.372437e+00	1.341301e+00	1.319046e+00	1.305306e+00	1.298005e+00	1.294594e+00	1.293152e+00	1.292586e+00	1.292380e+00	1.292320e+00	1.636960e+00	1.638150e+00	1.625937e+00	1.609631e+00	1.569590e+00	1.520954e+00	1.470986e+00	1.423067e+00	1.379868e+00	1.346113e+00	1.322375e+00	1.307661e+00	1.299620e+00	1.295643e+00	1.293799e+00	1.292970e+00	1.292599e+00	1.292428e+00	1.561467e+00	1.577851e+00	1.590272e+00	1.601632e+00	1.591295e+00	1.545076e+00	1.488075e+00	1.435480e+00	1.388201e+00	1.351321e+00	1.325821e+00	1.310034e+00	1.301230e+00	1.296689e+00	1.294446e+00	1.293354e+00	1.292820e+00	1.292539e+00	1.480346e+00	1.493506e+00	1.508515e+00	1.528299e+00	1.554015e+00	1.545105e+00	1.498547e+00	1.445383e+00	1.395897e+00	1.356425e+00	1.329231e+00	1.312393e+00	1.302840e+00	1.297741e+00	1.295102e+00	1.293746e+00	1.293046e+00	1.292656e+00	1.436611e+00	1.444961e+00	1.456565e+00	1.467615e+00	1.495739e+00	1.519416e+00	1.497311e+00	1.450796e+00	1.402076e+00	1.361194e+00	1.332558e+00	1.314732e+00	1.304457e+00	1.298809e+00	1.295772e+00	1.294150e+00	1.293281e+00	1.292780e+00	1.403201e+00	1.409791e+00	1.418691e+00	1.427445e+00	1.443514e+00	1.478270e+00	1.482939e+00	1.450107e+00	1.405646e+00	1.365120e+00	1.335616e+00	1.316986e+00	1.306056e+00	1.299884e+00	1.296455e+00	1.294564e+00	1.293525e+00	1.292915e+00	1.376475e+00	1.382664e+00	1.388367e+00	1.397750e+00	1.405460e+00	1.435352e+00	1.458416e+00	1.442828e+00	1.405972e+00	1.367747e+00	1.338209e+00	1.319071e+00	1.307604e+00	1.300951e+00	1.297144e+00	1.294986e+00	1.293777e+00	1.293058e+00	1.355875e+00	1.361667e+00	1.365351e+00	1.373789e+00	1.379127e+00	1.398755e+00	1.428837e+00	1.429632e+00	1.402749e+00	1.368635e+00	1.340104e+00	1.320884e+00	1.309050e+00	1.301984e+00	1.297823e+00	1.295407e+00	1.294030e+00	1.293208e+00	1.337574e+00	1.342587e+00	1.346032e+00	1.352336e+00	1.358628e+00	1.370060e+00	1.398892e+00	1.412043e+00	1.396089e+00	1.367566e+00	1.341120e+00	1.322327e+00	1.310346e+00	1.302955e+00	1.298478e+00	1.295817e+00	1.294279e+00	1.293360e+00	1.321256e+00	1.325225e+00	1.329068e+00	1.333192e+00	1.340504e+00	1.347630e+00	1.371437e+00	1.391962e+00	1.386508e+00	1.364570e+00	1.341154e+00	1.323332e+00	1.311449e+00	1.303839e+00	1.299089e+00	1.296205e+00	1.294516e+00	1.293511e+00	1.306252e+00	1.309413e+00	1.313503e+00	1.316342e+00	1.323586e+00	1.329451e+00	1.347661e+00	1.371154e+00	1.374755e+00	1.359852e+00	1.340195e+00	1.323869e+00	1.312334e+00	1.304614e+00	1.299643e+00	1.296561e+00	1.294735e+00	1.293654e+00	1.292493e+00	1.295215e+00	1.299100e+00	1.301529e+00	1.307758e+00	1.313750e+00	1.327425e+00	1.350901e+00	1.361605e+00	1.353713e+00	1.338336e+00	1.323958e+00	1.312999e+00	1.305271e+00	1.300130e+00	1.296879e+00	1.294930e+00	1.293785e+00	1.280024e+00	1.282582e+00	1.285958e+00	1.288451e+00	1.293331e+00	1.299648e+00	1.310151e+00	1.331967e+00	1.347784e+00	1.346537e+00	1.335751e+00	1.323654e+00	1.313457e+00	1.305810e+00	1.300545e+00	1.297153e+00	1.295099e+00	1.293901e+00	1.267923e+00	1.270477e+00	1.273348e+00	1.276089e+00	1.279905e+00	1.286425e+00	1.295111e+00	1.314692e+00	1.333882e+00	1.338713e+00	1.332644e+00	1.323038e+00	1.313738e+00	1.306239e+00	1.300890e+00	1.297384e+00	1.295242e+00	1.294000e+00	1.255797e+00	1.258360e+00	1.260864e+00	1.263804e+00	1.267002e+00	1.273539e+00	1.281508e+00	1.299047e+00	1.320337e+00	1.330597e+00	1.329215e+00	1.322204e+00	1.313878e+00	1.306571e+00	1.301171e+00	1.297574e+00	1.295359e+00	1.294083e+00	1.243429e+00	1.245946e+00	1.248241e+00	1.251264e+00	1.254242e+00	1.260661e+00	1.268671e+00	1.284780e+00	1.307442e+00	1.322505e+00	1.325661e+00	1.321247e+00	1.313913e+00	1.306821