# vtk DataFile Version 3.0
vtk output
ASCII
DATASET UNSTRUCTURED_GRID
POINTS 1851 double
1.000000e+02	0.000000e+00	0.0	9.917900e+01	1.278772e+01	0.0	9.672949e+01	2.536546e+01	0.0	9.269168e+01	3.752670e+01	0.0	8.713187e+01	4.907176e+01	0.0	8.014136e+01	5.981105e+01	0.0	7.183494e+01	6.956826e+01	0.0	6.234898e+01	7.818315e+01	0.0	5.183926e+01	8.551428e+01	0.0	4.047833e+01	9.144126e+01	0.0	2.845276e+01	9.586679e+01	0.0	1.595999e+01	9.871818e+01	0.0	3.205158e+00	9.994862e+01	0.0	-9.602303e+00	9.953791e+01	0.0	-2.225209e+01	9.749279e+01	0.0	-3.453651e+01	9.384684e+01	0.0	-4.625383e+01	8.865993e+01	0.0	-5.721167e+01	8.201723e+01	0.0	-6.723009e+01	7.402780e+01	0.0	-7.614460e+01	6.482284e+01	0.0	-8.380881e+01	5.455349e+01	0.0	-9.009689e+01	4.338837e+01	0.0	-9.490557e+01	3.151082e+01	0.0	-9.815592e+01	1.911586e+01	0.0	-9.979454e+01	6.407022e+00	0.0	-9.979454e+01	-6.407022e+00	0.0	-9.815592e+01	-1.911586e+01	0.0	-9.490557e+01	-3.151082e+01	0.0	-9.009689e+01	-4.338837e+01	0.0	-8.380881e+01	-5.455349e+01	0.0	-7.614460e+01	-6.482284e+01	0.0	-6.723009e+01	-7.402780e+01	0.0	-5.721167e+01	-8.201723e+01	0.0	-4.625383e+01	-8.865993e+01	0.0	-3.453651e+01	-9.384684e+01	0.0	-2.225209e+01	-9.749279e+01	0.0	-9.602303e+00	-9.953791e+01	0.0	3.205158e+00	-9.994862e+01	0.0	1.595999e+01	-9.871818e+01	0.0	2.845276e+01	-9.586679e+01	0.0	4.047833e+01	-9.144126e+01	0.0	5.183926e+01	-8.551428e+01	0.0	6.234898e+01	-7.818315e+01	0.0	7.183494e+01	-6.956826e+01	0.0	8.014136e+01	-5.981105e+01	0.0	8.713187e+01	-4.907176e+01	0.0	9.269168e+01	-3.752670e+01	0.0	9.672949e+01	-2.536546e+01	0.0	9.917900e+01	-1.278772e+01	0.0	0.000000e+00	0.000000e+00	0.0	3.469112e-03	3.600731e-03	0.0	7.206915e-03	7.174590e-03	0.0	1.160548e-02	1.027192e-02	0.0	1.625377e-02	1.333805e-02	0.0	2.137181e-02	1.602204e-02	0.0	2.672726e-02	1.868383e-02	0.0	3.249510e-02	2.095200e-02	0.0	3.850114e-02	2.319468e-02	0.0	4.483249e-02	2.517837e-02	0.0	5.138646e-02	2.720367e-02	0.0	5.817245e-02	2.925404e-02	0.0	6.511690e-02	3.156850e-02	0.0	7.224006e-02	3.409702e-02	0.0	7.944050e-02	3.708743e-02	0.0	8.684276e-02	4.022973e-02	0.0	9.450794e-02	4.338045e-02	0.0	1.024695e-01	4.644291e-02	0.0	1.108300e-01	4.914321e-02	0.0	1.195072e-01	5.163100e-02	0.0	1.285970e-01	5.355035e-02	0.0	1.379473e-01	5.545094e-02	0.0	1.476453e-01	5.684112e-02	0.0	1.575938e-01	5.826722e-02	0.0	1.678128e-01	5.957130e-02	0.0	1.782886e-01	6.084416e-02	0.0	1.890085e-01	6.216643e-02	0.0	1.999625e-01	6.359366e-02	0.0	2.111566e-01	6.505216e-02	0.0	2.225849e-01	6.655329e-02	0.0	2.342433e-01	6.809110e-02	0.0	2.461339e-01	6.959662e-02	0.0	2.583017e-01	7.058778e-02	0.0	2.706830e-01	7.159633e-02	0.0	2.832930e-01	7.189196e-02	0.0	2.961179e-01	7.164706e-02	0.0	3.091235e-01	7.129540e-02	0.0	3.221824e-01	6.939915e-02	0.0	3.354088e-01	6.747858e-02	0.0	3.487305e-01	6.517656e-02	0.0	3.621435e-01	6.253895e-02	0.0	3.756886e-01	5.987571e-02	0.0	3.894620e-01	5.781852e-02	0.0	4.033430e-01	5.574527e-02	0.0	4.173939e-01	5.459825e-02	0.0	4.316039e-01	5.441505e-02	0.0	4.458792e-01	5.426221e-02	0.0	4.601257e-01	5.580972e-02	0.0	4.744095e-01	5.736128e-02	0.0	4.887064e-01	5.899687e-02	0.0	5.030026e-01	6.070518e-02	0.0	5.172956e-01	6.235069e-02	0.0	5.316613e-01	6.259355e-02	0.0	5.459896e-01	6.283576e-02	0.0	5.601696e-01	6.169125e-02	0.0	5.742102e-01	5.949552e-02	0.0	5.881530e-01	5.723014e-02	0.0	6.017026e-01	5.357109e-02	0.0	6.151472e-01	4.994037e-02	0.0	6.284274e-01	4.617674e-02	0.0	6.415264e-01	4.226758e-02	0.0	6.544850e-01	3.840036e-02	0.0	6.674460e-01	3.514763e-02	0.0	6.802684e-01	3.203022e-02	0.0	6.929685e-01	2.921291e-02	0.0	7.056305e-01	2.716071e-02	0.0	7.180967e-01	2.514023e-02	0.0	7.304367e-01	2.376846e-02	0.0	7.425952e-01	2.266892e-02	0.0	7.545434e-01	2.176200e-02	0.0	7.662989e-01	2.145355e-02	0.0	7.778214e-01	2.115121e-02	0.0	7.891065e-01	2.134186e-02	0.0	8.001498e-01	2.161531e-02	0.0	8.109440e-01	2.199032e-02	0.0	8.214875e-01	2.243401e-02	0.0	8.317837e-01	2.276318e-02	0.0	8.418329e-01	2.290458e-02	0.0	8.516274e-01	2.295974e-02	0.0	8.611568e-01	2.243934e-02	0.0	8.704332e-01	2.193277e-02	0.0	8.794205e-01	2.101128e-02	0.0	8.881472e-01	1.999397e-02	0.0	8.966108e-01	1.889911e-02	0.0	9.047981e-01	1.761431e-02	0.0	9.127425e-01	1.636761e-02	0.0	9.204276e-01	1.504288e-02	0.0	9.278719e-01	1.373347e-02	0.0	9.350807e-01	1.245073e-02	0.0	9.420554e-01	1.118304e-02	0.0	9.488046e-01	9.955966e-03	0.0	9.553269e-01	8.739136e-03	0.0	9.616322e-01	7.562790e-03	0.0	9.677207e-01	6.404266e-03	0.0	9.736006e-01	5.281425e-03	0.0	9.792732e-01	4.177388e-03	0.0	9.847459e-01	3.104030e-03	0.0	9.900221e-01	2.054114e-03	0.0	9.951058e-01	1.022465e-03	0.0	1.000000e+00	0.000000e+00	0.0	9.950043e-01	2.020990e-04	0.0	9.898191e-01	4.083869e-04	0.0	9.844376e-01	5.628108e-04	0.0	9.788554e-01	6.692652e-04	0.0	9.730682e-01	7.493416e-04	0.0	9.670709e-01	7.673967e-04	0.0	9.608593e-01	7.615268e-04	0.0	9.544287e-01	6.890672e-04	0.0	9.477747e-01	5.993800e-04	0.0	9.408942e-01	4.154965e-04	0.0	9.337813e-01	2.254016e-04	0.0	9.264355e-01	-7.142858e-05	0.0	9.188502e-01	-3.986556e-04	0.0	9.110243e-01	-7.931555e-04	0.0	9.029561e-01	-1.287238e-03	0.0	8.946385e-01	-1.796600e-03	0.0	8.860807e-01	-2.487190e-03	0.0	8.772703e-01	-3.213661e-03	0.0	8.682148e-01	-4.069503e-03	0.0	8.589148e-01	-5.074905e-03	0.0	8.493611e-01	-6.133463e-03	0.0	8.395755e-01	-7.428214e-03	0.0	8.295339e-01	-8.756828e-03	0.0	8.192411e-01	-1.014790e-02	0.0	8.086955e-01	-1.157811e-02	0.0	7.978830e-01	-1.291955e-02	0.0	7.868125e-01	-1.421872e-02	0.0	7.754842e-01	-1.542970e-02	0.0	7.638923e-01	-1.645338e-02	0.0	7.520631e-01	-1.749802e-02	0.0	7.400097e-01	-1.864647e-02	0.0	7.277310e-01	-1.981799e-02	0.0	7.152798e-01	-2.137801e-02	0.0	7.026626e-01	-2.331667e-02	0.0	6.898447e-01	-2.528618e-02	0.0	6.770924e-01	-2.854135e-02	0.0	6.641662e-01	-3.186313e-02	0.0	6.512057e-01	-3.566937e-02	0.0	6.382917e-01	-4.018843e-02	0.0	6.252358e-01	-4.475715e-02	0.0	6.120386e-01	-4.933948e-02	0.0	5.987199e-01	-5.395308e-02	0.0	5.852362e-01	-5.840010e-02	0.0	5.713373e-01	-6.178136e-02	0.0	5.573576e-01	-6.518231e-02	0.0	5.430734e-01	-6.706058e-02	0.0	5.285970e-01	-6.804458e-02	0.0	5.140786e-01	-6.874134e-02	0.0	4.995208e-01	-6.811201e-02	0.0	4.849552e-01	-6.748235e-02	0.0	4.703985e-01	-6.682647e-02	0.0	4.558654e-01	-6.616210e-02	0.0	4.413734e-01	-6.593942e-02	0.0	4.269413e-01	-6.677344e-02	0.0	4.125778e-01	-6.760350e-02	0.0	3.984683e-01	-6.987431e-02	0.0	3.844853e-01	-7.238509e-02	0.0	3.706559e-01	-7.509309e-02	0.0	3.570244e-01	-7.815047e-02	0.0	3.435275e-01	-8.117765e-02	0.0	3.300860e-01	-8.372372e-02	0.0	3.167885e-01	-8.616412e-02	0.0	3.035975e-01	-8.807863e-02	0.0	2.904731e-01	-8.907543e-02	0.0	2.775420e-01	-9.005753e-02	0.0	2.647831e-01	-8.995700e-02	0.0	2.522318e-01	-8.971537e-02	0.0	2.399161e-01	-8.915808e-02	0.0	2.278503e-01	-8.814859e-02	0.0	2.160163e-01	-8.715850e-02	0.0	2.044552e-01	-8.583534e-02	0.0	1.931388e-01	-8.450921e-02	0.0	1.820916e-01	-8.303890e-02	0.0	1.713245e-01	-8.136948e-02	0.0	1.608080e-01	-7.973892e-02	0.0	1.506689e-01	-7.749442e-02	0.0	1.407911e-01	-7.525201e-02	0.0	1.312809e-01	-7.265860e-02	0.0	1.221869e-01	-6.954453e-02	0.0	1.133372e-01	-6.651414e-02	0.0	1.050758e-01	-6.272709e-02	0.0	9.711078e-02	-5.889184e-02	0.0	8.943809e-02	-5.504830e-02	0.0	8.223289e-02	-5.086170e-02	0.0	7.524382e-02	-4.680067e-02	0.0	6.852908e-02	-4.276253e-02	0.0	6.207172e-02	-3.876931e-02	0.0	5.581637e-02	-3.490651e-02	0.0	4.964981e-02	-3.135644e-02	0.0	4.368473e-02	-2.792237e-02	0.0	3.781319e-02	-2.479243e-02	0.0	3.210963e-02	-2.182150e-02	0.0	2.658660e-02	-1.897861e-02	0.0	2.126683e-02	-1.621116e-02	0.0	1.627216e-02	-1.328675e-02	0.0	1.158029e-02	-1.027078e-02	0.0	7.198393e-03	-7.142918e-03	0.0	3.268893e-03	-3.756054e-03	0.0	8.011309e-01	-1.097765e-01	0.0	8.339263e-01	-1.411539e-01	0.0	8.373055e-01	-9.615725e-02	0.0	8.795502e+01	2.760173e+01	0.0	8.290861e+01	3.573653e+01	0.0	8.065309e+01	2.706267e+01	0.0	7.411888e+01	-1.034372e+01	0.0	7.516061e+01	-2.461776e+01	0.0	8.662290e+01	-1.781980e+01	0.0	8.799288e+01	-5.484136e+00	0.0	2.782089e+01	2.438818e+01	0.0	3.784549e+01	2.743496e+01	0.0	3.032119e+01	3.490103e+01	0.0	7.489601e+01	1.930029e+01	0.0	7.412097e+01	3.140235e+01	0.0	6.884038e+01	-3.569246e+01	0.0	7.543270e+01	-4.373928e+01	0.0	8.104713e+01	-3.644459e+01	0.0	8.655654e+01	-2.831998e+01	0.0	5.513885e+01	2.279102e+01	0.0	4.837943e+01	3.017037e+01	0.0	4.555536e+01	2.018058e+01	0.0	7.214805e+01	-5.287566e+01	0.0	6.296335e+01	-5.069981e+01	0.0	6.303762e+01	-5.834962e+01	0.0	6.893788e+01	5.964594e+01	0.0	7.279719e+01	5.045048e+01	0.0	6.002654e+01	6.483641e+01	0.0	4.845087e+01	-6.328022e+01	0.0	4.444513e+01	-7.264139e+01	0.0	5.406312e+01	-7.167399e+01	0.0	6.761924e+01	-4.505066e+01	0.0	4.881464e+01	7.179219e+01	0.0	3.153030e+01	6.373052e+01	0.0	2.662909e+01	5.451544e+01	0.0	3.704797e+01	5.568806e+01	0.0	5.400435e+01	-5.421063e+01	0.0	5.638389e+01	-6.308466e+01	0.0	2.370164e+01	7.955198e+01	0.0	2.732894e+01	7.178928e+01	0.0	3.208831e+01	7.822524e+01	0.0	3.572794e+01	-7.190352e+01	0.0	2.891560e+01	-7.689833e+01	0.0	3.834202e+01	-8.066915e+01	0.0	5.133100e+00	4.880533e+01	0.0	-2.585977e+00	5.531172e+01	0.0	-4.422330e+00	4.437039e+01	0.0	3.482247e+00	3.954741e+01	0.0	2.012281e+01	8.861066e+01	0.0	1.220734e+01	7.949587e+01	0.0	2.691722e+00	2.260916e+00	0.0	2.901555e+00	3.418986e+00	0.0	1.777866e+00	2.786977e+00	0.0	1.243353e+00	3.198769e-02	0.0	1.375833e+00	7.041334e-02	0.0	1.247409e+00	1.248236e-01	0.0	1.175843e+00	7.003224e-02	0.0	1.012204e+00	4.601331e-02	0.0	1.026246e+00	3.254305e-02	0.0	1.034570e+00	5.557054e-02	0.0	1.074332e+00	1.098962e-01	0.0	1.035590e+00	1.489932e-01	0.0	1.035897e+00	9.107775e-02	0.0	1.005653e+00	7.688030e-03	0.0	1.007520e+00	1.518431e-02	0.0	1.000352e+00	1.359625e-02	0.0	1.001118e+00	4.499033e-03	0.0	9.972259e-01	3.970334e-03	0.0	1.003246e+00	2.090027e-02	0.0	9.953061e-01	2.680767e-02	0.0	9.942822e-01	1.793771e-02	0.0	9.904250e-01	6.061196e-03	0.0	9.778991e-01	9.056063e-03	0.0	9.584265e-01	1.400224e-02	0.0	9.644384e-01	1.142983e-02	0.0	9.651516e-01	1.695290e-02	0.0	9.685929e-01	1.248959e-02	0.0	9.472194e-01	2.355301e-02	0.0	9
[...]
POINT_DATA 1851

SCALARS Density double 1
LOOKUP_TABLE default
1.291523e+00	1.291593e+00	1.292034e+00	1.292230e+00	1.292149e+00	1.292082e+00	1.292054e+00	1.292020e+00	1.291972e+00	1.291928e+00	1.291898e+00	1.291884e+00	1.291897e+00	1.291940e+00	1.292009e+00	1.292076e+00	1.292139e+00	1.292184e+00	1.292220e+00	1.292246e+00	1.292265e+00	1.292279e+00	1.292289e+00	1.292299e+00	1.292306e+00	1.292315e+00	1.292323e+00	1.292334e+00	1.292347e+00	1.292364e+00	1.292387e+00	1.292416e+00	1.292454e+00	1.292498e+00	1.292551e+00	1.292611e+00	1.292674e+00	1.292718e+00	1.292722e+00	1.292698e+00	1.292653e+00	1.292596e+00	1.292537e+00	1.292478e+00	1.292420e+00	1.292375e+00	1.292398e+00	1.292300e+00	1.291903e+00	1.476701e+00	1.142230e+00	1.224100e+00	1.176869e+00	1.145699e+00	1.125213e+00	1.112058e+00	1.112608e+00	1.141076e+00	1.172226e+00	1.211162e+00	1.236779e+00	1.249252e+00	1.249633e+00	1.223502e+00	1.162459e+00	1.102526e+00	1.025020e+00	9.529626e-01	8.812496e-01	8.348395e-01	7.990463e-01	7.709588e-01	7.718353e-01	7.711210e-01	7.818129e-01	8.053557e-01	8.285047e-01	8.471430e-01	8.699933e-01	8.854618e-01	8.625581e-01	8.387987e-01	8.045358e-01	7.463271e-01	7.179208e-01	6.450455e-01	5.712942e-01	5.546805e-01	5.334328e-01	5.271072e-01	5.632235e-01	6.905043e-01	1.041841e+00	1.238716e+00	1.210238e+00	1.212770e+00	1.194726e+00	1.140611e+00	1.106978e+00	1.060433e+00	9.688462e-01	8.964821e-01	8.336681e-01	7.674334e-01	8.061986e-01	9.350385e-01	1.046321e+00	1.112048e+00	1.145133e+00	1.177764e+00	1.210323e+00	1.227748e+00	1.235860e+00	1.252588e+00	1.255816e+00	1.257753e+00	1.263994e+00	1.257916e+00	1.261698e+00	1.256169e+00	1.250073e+00	1.244573e+00	1.229858e+00	1.219337e+00	1.203865e+00	1.185727e+00	1.174840e+00	1.158097e+00	1.154931e+00	1.159438e+00	1.159424e+00	1.173004e+00	1.178562e+00	1.189019e+00	1.199742e+00	1.206947e+00	1.217034e+00	1.223703e+00	1.230355e+00	1.236392e+00	1.242181e+00	1.248049e+00	1.253601e+00	1.259595e+00	1.265710e+00	1.272404e+00	1.283260e+00	1.283646e+00	1.297483e+00	1.377018e+00	1.359963e+00	1.358568e+00	1.362802e+00	1.362960e+00	1.364534e+00	1.365225e+00	1.366638e+00	1.367221e+00	1.367763e+00	1.368966e+00	1.368041e+00	1.369733e+00	1.368307e+00	1.369945e+00	1.369731e+00	1.368095e+00	1.369042e+00	1.365652e+00	1.364940e+00	1.361175e+00	1.353827e+00	1.349357e+00	1.341161e+00	1.336048e+00	1.333049e+00	1.329209e+00	1.332939e+00	1.341699e+00	1.346973e+00	1.357440e+00	1.367889e+00	1.364989e+00	1.379263e+00	1.377349e+00	1.360886e+00	1.361134e+00	1.339603e+00	1.308277e+00	1.278226e+00	1.238051e+00	1.172156e+00	1.108622e+00	9.889633e-01	9.207308e-01	9.583291e-01	9.963896e-01	1.068342e+00	1.156277e+00	1.202283e+00	1.250398e+00	1.296688e+00	1.305987e+00	1.322013e+00	1.328159e+00	1.300323e+00	1.287554e+00	1.265480e+00	1.229263e+00	1.024246e+00	7.747824e-01	7.000609e-01	7.386464e-01	7.824165e-01	8.466077e-01	9.120207e-01	9.377944e-01	9.851960e-01	1.016250e+00	1.038660e+00	1.059169e+00	1.062495e+00	1.066489e+00	1.046595e+00	1.054188e+00	1.074558e+00	1.078906e+00	1.126691e+00	1.146879e+00	1.186977e+00	1.262794e+00	1.294712e+00	1.341162e+00	1.388018e+00	1.416777e+00	1.450707e+00	1.482828e+00	1.501625e+00	1.518329e+00	1.534007e+00	1.543163e+00	1.553809e+00	1.561977e+00	1.573629e+00	1.594002e+00	1.615881e+00	1.619594e+00	1.678937e+00	1.358563e+00	1.356383e+00	1.365112e+00	1.292123e+00	1.292145e+00	1.292050e+00	1.292067e+00	1.292331e+00	1.292139e+00	1.291824e+00	1.291854e+00	1.291978e+00	1.291784e+00	1.292006e+00	1.292122e+00	1.292387e+00	1.292375e+00	1.292343e+00	1.292322e+00	1.292055e+00	1.292035e+00	1.292018e+00	1.292417e+00	1.292445e+00	1.292473e+00	1.292044e+00	1.292072e+00	1.292009e+00	1.292563e+00	1.292607e+00	1.292553e+00	1.292401e+00	1.291955e+00	1.291837e+00	1.291757e+00	1.291858e+00	1.292497e+00	1.292520e+00	1.291835e+00	1.291828e+00	1.291871e+00	1.292666e+00	1.292706e+00	1.292654e+00	1.291487e+00	1.291587e+00	1.291446e+00	1.291250e+00	1.291856e+00	1.291800e+00	1.287305e+00	1.286014e+00	1.278364e+00	1.269774e+00	1.272218e+00	1.291104e+00	1.278018e+00	1.284118e+00	1.285577e+00	1.289131e+00	1.296255e+00	1.296015e+00	1.290590e+00	1.287321e+00	1.287318e+00	1.288583e+00	1.305670e+00	1.297663e+00	1.283355e+00	1.279825e+00	1.280565e+00	1.280812e+00	1.265269e+00	1.246932e+00	1.251952e+00	1.254090e+00	1.256406e+00	1.239460e+00	1.248946e+00	1.246478e+00	1.297078e+00	1.281279e+00	1.289564e+00	1.345407e+00	1.355445e+00	1.352899e+00	1.370448e+00	1.370230e+00	1.371675e+00	1.372162e+00	1.368589e+00	1.243330e+00	1.287891e+00	1.280249e+00	1.161638e+00	1.024319e+00	1.078547e+00	1.057812e+00	1.168802e+00	1.155995e+00	1.170749e+00	8.873878e-01	8.766285e-01	8.053148e-01	1.135942e+00	1.019874e+00	1.076211e+00	1.079803e+00	6.150870e-01	9.487148e-01	8.446655e-01	1.207983e+00	1.263391e+00	1.240125e+00	1.156165e+00	1.198710e+00	1.370972e+00	1.370214e+00	1.369490e+00	9.535036e-01	1.019901e+00	1.033037e+00	1.146819e+00	1.208809e+00	1.203808e+00	1.093204e+00	1.025009e+00	8.219636e-01	7.990148e-01	7.929795e-01	8.926477e-01	8.065373e-01	7.903882e-01	1.029780e+00	1.084550e+00	1.100112e+00	1.261968e+00	1.214682e+00	1.195314e+00	1.253627e+00	1.288140e+00	1.255756e+00	1.225518e+00	1.177449e+00	1.346285e+00	1.351705e+00	1.334441e+00	1.311627e+00	8.958605e-01	8.755794e-01	9.041375e-01	9.232230e-01	8.986901e-01	8.933462e-01	8.189866e-01	7.357706e-01	7.151901e-01	7.088080e-01	6.794481e-01	6.278366e-01	9.814295e-01	1.049568e+00	9.805554e-01	1.344395e+00	1.356813e+00	1.361020e+00	1.360852e+00	1.361858e+00	1.009043e+00	1.368215e+00	1.375722e+00	1.136544e+00	1.375129e+00	1.283817e+00	1.287888e+00	1.288474e+00	1.189239e+00	1.370376e+00	1.367447e+00	1.119271e+00	8.168097e-01	5.490431e-01	5.662481e-01	5.730824e-01	1.024686e+00	9.786427e-01	1.076564e+00	1.216690e+00	1.230009e+00	1.199768e+00	1.366146e+00	1.366288e+00	1.360014e+00	1.098467e+00	1.025272e+00	1.057745e+00	1.049874e+00	8.117548e-01	1.248324e+00	1.220877e+00	1.246601e+00	7.879548e-01	7.571628e-01	9.585014e-01	1.031253e+00	9.866494e-01	9.275582e-01	9.027420e-01	8.529965e-01	9.335864e-01	8.498366e-01	9.102101e-01	1.251835e+00	1.269080e+00	1.008542e+00	9.764012e-01	1.285738e+00	1.290349e+00	1.371522e+00	1.371306e+00	1.373729e+00	1.191204e+00	1.250956e+00	1.234747e+00	1.058307e+00	1.073551e+00	1.128394e+00	1.115475e+00	1.141918e+00	1.301509e+00	1.301111e+00	1.313652e+00	1.323433e+00	1.348266e+00	1.342663e+00	1.240579e+00	1.248885e+00	1.243977e+00	1.245119e+00	1.237989e+00	1.232824e+00	1.339230e+00	1.218541e+00	1.177478e+00	1.174474e+00	1.235949e+00	1.209858e+00	1.244146e+00	1.233683e+00	1.246629e+00	1.201270e+00	1.216108e+00	1.201504e+00	1.231840e+00	1.244251e+00	1.252198e+00	1.254811e+00	1.174205e+00	1.166559e+00	1.177292e+00	1.258671e+00	1.259249e+00	1.257152e+00	1.188891e+00	1.182458e+00	1.183883e+00	1.199529e+00	1.191652e+00	1.259657e+00	1.259905e+00	1.174580e+00	1.253021e+00	1.251830e+00	1.256964e+00	1.290957e+00	1.290005e+00	1.291544e+00	1.366772e+00	1.365125e+00	1.202126e+00	1.219829e+00	1.214510e+00	1.228409e+00	1.289107e+00	1.284258e+00	1.283377e+00	1.251116e+00	1.234477e+00	1.247136e+00	1.274847e+00	1.260218e+00	1.270558e+00	1.372335e+00	1.371252e+00	1.371217e+00	1.378230e+00	1.373179e+00	1.368876e+00	1.370628e+00	1.376379e+00	1.377841e+00	1.377011e+00	1.370250e+00	1.367347e+00	1.363966e+00	1.361700e+00	1.476372e+00	1.436311e+00	1.461364e+00	1.571734e+00	1.584322e+00	1.608738e+00	1.586438e+00	1.601585e+00	1.606580e+00	1.630632e+00	1.620709e+00	1.494961e+00	1.524287e+00	1.536531e+00	1.549932e+00	1.565139e+00	1.547911e+00	1.345148e+00	1.349149e+00	1.374964e+00	1.593955e+00	1.598620e+00	1.573970e+00	1.584263e+00	1.303864e+00	1.302921e+00	1.300876e+00	1.320400e+00	1.313689e+00	1.311187e+00	1.200925e+00	1.193094e+00	1.240057e+00	1.248961e+00	1.234697e+00	1.230450e+00	1.190371e+00	1.191445e+00	1.210092e+00	7.256285e-01	9.009679e-01	9.644342e-01	9.452792e-01	1.245742e+00	1.229387e+00	1.265517e+00	1.291997e+00	1.291912e+00	5.290202e-01	5.503925e-01	5.785227e-01	5.876982e-01	6.387403e-01	5.737990e-01	8.996606e-01	8.476792e-01	8.776101e-01	8.659139e-01	8.779904e-01	9.107560e-01	1.291934e+00	8.802419e-01	8.588331e-01	1.284163e+00	1.289021e+00	1.292051e+00	8.797367e-01	8.184619e-01	8.271049e-01	1.236677e+00	1.239777e+00	1.222242e+00	1.104777e+00	1.164410e+00	1.161917e+00	1.213563e+00	1.199758e+00	1.292124e+00	1.209990e+00	1.180982e+00	1.160832e+00	1.253326e+00	1.244276e+00	1.245463e+00	1.292215e+00	1.291919e+00	1.291421e+00	1.291662e+00	1.292137e+00	1.292121e+00	1.291930e+00	1.292349e+00	1.292296e+00	1.292321e+00	1.232483e+00	1.240171e+00	1.240078e+00	1.292198e+00	1.292232e+00	1.292207e+00	1.292266e+00	1.292227e+00	1.292268e+00	1.292295e+00	1.292285e+00	1.292292e+00	1.292249e+00	1.292274e+00	1.292322e+00	1.292336e+00	1.292342e+00	1.292356e+00	1.292425e+00	1.292426e+00	1.292395e+00	1.292391e+00	1.292363e+00	1.292486e+00	1.292422e+00	1.292460e+00	1.292502e+00	1.292307e+00	1.292349e+00	1.292511e+00	1.293995e+00	1.295741e+00	1.294696e+00	1.292479e+00	1.293048e+00	1.293666e+00	1.293695e+00	1.302210e+00	1.304907e+00	1.309688e+00	1.292561e+00	1.292506e+00	1.335414e+00	1.320234e+00	1.330237e+00	1.478879e+00	1.504468e+00	1.472265e+00	1.293214e+00	1.292958e+00	1.292973e+00	1.551189e+00	1.525349e+00	1.292677e+00	1.292579e+00	1.292633e+00	1.479844e+00	1.435779e+00	1.413636e+00	1.409217e+00	1.292817e+00	1.292756e+00	1.292786e+00	1.296146e+00	1.295782e+00	1.297792e+00	1.293782e+00	1.293296e+00	1.293675e+00	1.293218e+00	1.292723e+00	1.292733e+00	1.292678e+00	1.299832e+00	1.297890e+00	1.313994e+00	1.323013e+00	1.330712e+00	1.299287e+00	1.301976e+00	1.289387e+00	1.317633e+00	1.278857e+00	1.305699e+00	1.304569e+00	1.311307e+00	1.200724e+00	1.166181e+00	1.233768e+00	1.292971e+00	1.292864e+00	1.292889e+00	1.102088e+00	1.121617e+00	1.146363e+00	1.303809e+00	1.302317e+00	1.289792e+00	1.072839e+00	1.073779e+00	1.091521e+00	1.094631e+00	1.071736e+00	1.075723e+00	1.292691e+00	1.292734e+00	1.287611e+00	1.272199e+00	1.272800e+00	1.284780e+00	1.258921e+00	1.280399e+00	1.232468e+00	1.202793e+00	1.096963e+00	1.352677e+00	1.354554e+00	1.359748e+00	1.360265e+00	1.356601e+00	1.346337e+00	1.355827e+00	1.361438e+00	1.350081e+00	1.341698e+00	1.343737e+00	1.355916e+00	1.358600e+00	1.292309e+00	1.233115e+00	1.286446e+00	1.268113e+00	1.292122e+00	1.291982e+00	1.292941e+00	1.292666e+00	1.292777e+00	1.375664e+00	1.372275e+00	1.372455e+00	1.293017e+00	1.292696e+00	1.292208e+00	1.292652e+00	1.292794e+00	1.292104e+00	1.291963e+00	1.292035e+00	1.292644e+00	1.291885e+00	1.291919e+00	1.291852e+00	1.291772e+00	1.291659e+00	1.291813e+00	1.291994e+00	1.291850e+00	1.292458e+00	1.291786e+00	1.291958e+00	1.292029e+00	1.292787e+00	1.292647e+00	1.292777e+00	1.293194e+00	1.292232e+00	1.292234e+00	1.293301e+00	1.293087e+00	1.293578e+00	1.535632e+00	1.535613e+00	1.545008e+00	1.291854e+00	1.291667e+00	1.292118e+00	1.291772e+00	1.288849e+00	1.289666e+00	1.285585e+00	1.280678e+00	1.293423e+00	1.292810e+00	1.292439e+00	1.292444e+00	1.292666e+00	1.292728e+00	1.292846e+00	1.292329e+00	1.292341e+00	1.292359e+00	1.292149e+00	1.291875e+00	1.291808e+00	1.292758e+00	1.292102e+00	1.292070e+00	1.292005e+00	1.291820e+00	1.291904e+00	1.291952e+00	1.291999e+00	1.291860e+00	1.291832e+00	1.292307e+00	1.292371e+00	1.292748e+00	1.292835e+00	1.292718e+00	1.292402e+00	1.292383e+00	1.292374e+00	1.292215e+00	1.293050e+00	1.085018e+00	1.098703e+00	1.291224e+00	1.291919e+00	1.292979e+00	1.292823e+00	1.292886e+00	1.291828e+00	1.292122e+00	1.292187e+00	1.292422e+00	1.292477e+00	1.291533e+00	1.292796e+00	1.292782e+00	1.292238e+00	1.292358e+00	1.291796e+00	1.293475e+00	1.293131e+00	1.292901e+00	1.291553e+00	1.291710e+00	1.292379e+00	1.293198e+00	1.294292e+00	1.292077e+00	1.292154e+00	1.292441e+00	1.291844e+00	1.291743e+00	1.291825e+00	1.292299e+00	1.292251e+00	1.292450e+00	1.292386e+00	1.292315e+00	1.292361e+00	1.292163e+00	1.292081e+00	1.292852e+00	1.292944e+00	1.292734e+00	1.292762e+00	1.291784e+00	1.292703e+00	1.292647e+00	1.291883e+00	1.291892e+00	1.291851e+00	1.292634e+00	1.292077e+00	1.292389e+00	1.292422e+00	1.292504e+00	1.292675e+00	1.292576e+00	1.292612e+00	1.291711e+00	1.292642e+00	1.292557e+00	1.292863e+00	1.291628e+00	1.291761e+00	1.291715e+00	1.292432e+00	1.292612e+00	1.292501e+00	1.292541e+00	1.292627e+00	1.292503e+00	1.292539e+00	1.291417e+00	1.291850e+00	1.291951e+00	1.291865e+00	1.290899e+00	1.289945e+00	1.290769e+00	1.291439e+00	1.292672e+00	1.286681e+00	1.303486e+00	1.268386e+00	1.291684e+00	1.292553e+00	1.291930e+00	1.292027e+00	1.291962e+00	1.192381e+00	1.292342e+00	1.292470e+00	1.291620e+00	1.293114e+00	1.292772e+00	1.291933e+00	1.292448e+00	1.292002e+00	1.292577e+00	1.291945e+00	1.291904e+00	1.291687e+00	1.292437e+00	1.291700e+00	1.291755e+00	1.271020e+00	1.274280e+00	1.366253e+00	1.294353e+00	1.295103e+00	1.294467e+00	1.360106e+00	1.322813e+00	1.293765e+00	1.294384e+00	1.295069e+00	1.294042e+00	1.291350e+00	1.292027e+00	1.290323e+00	1.292105e+00	1.290067e+00	1.292365e+00	1.282546e+00	1.293038e+00	1.293511e+00	1.290769e+00	1.289029e+00	1.293841e+00	1.294507e+00	9.529133e-01	9.920096e-01	9.890463e-01	1.295379e+00	1.295377e+00	1.297798e+00	1.297112e+00	1.292899e+00	1.290425e+00	1.291419e+00	1.292086e+00	1.290841e+00	1.248730e+00	1.248533e+00	1.290139e+00	1.291697e+00	1.290329e+00	1.290314e+00	1.289308e+00	1.291329e+00	1.294549e+00	1.288844e+00	1.295616e+00	1.295917e+00	1.296999e+00	1.295085e+00	1.293955e+00	1.300590e+00	1.286769e+00	1.291881e+00	9.262803e-01	9.161162e-01	1.350760e+00	1.296653e+00	1.297044e+00	1.294674e+00	1.300196e+00	1.302029e+00	1.432922e+00	1.424259e+00	1.397834e+00	1.292906e+00	1.288641e+00	1.270556e+00	1.318659e+00	1.314335e+00	1.313134e+00	1.291285e+00	1.294426e+00	1.289683e+00	1.292248e+00	1.290252e+00	1.284156e+00	1.366378e+00	1.360750e+00	1.364834e+00	1.296481e+00	1.115552e+00	1.298692e+00	1.298521e+00	1.299532e+00	1.288344e+00	1.291687e+00	1.252702e+00	1.302676e+00	1.420454e+00	1.391776e+00	1.428212e+00	1.297258e+00	1.382327e+00	1.309495e+00	1.308852e+00	1.364575e+00	1.363687e+00	1.265502e+00	1.224288e+00	1.297739e+00	1.299233e+00	1.287170e+00	1.296067e+00	1.293415e+00	1.291535e+00	1.296095e+00	1.298772e+00	1.303131e+00	1.310317e+00	1.299410e+00	1.299097e+00	1.255270e+00	1.282893e+00	1.292957e+00	1.283087e+00	1.288676e+00	1.316206e+00	1.264554e+00	1.271344e+00	1.308850e+00	1.297080e+00	1.291998e+00	1.281503e+00	6.506471e-01	1.298710e+00	1.318871e+00	1.273912e+00	1.232938e+00	1.303100e+00	1.277575e+00	1.297218e+00	1.148951e+00	1.164111e+00	1.299588e+00	1.164296e+00	1.106432e+00	1.271983e+00	1.294775e+00	1.288096e+00	1.308217e+00	1.259838e+00	1.299628e+00	1.311145e+00	1.303560e+00	1.311332e+00	1.323638e+00	1.339474e+00	1.297341e+00	1.301787e+00	1.363693e+00	1.370395e+00	1.309346e+00	1.306653e+00	1.317462e+00	1.313029e+00	1.107259e+00	1.118249e+00	1.039067e+00	1.308597e+00	1.364990e+00	1.279704e+00	1.291427e+00	1.383001e+00	1.349165e+00	1.305824e+00	1.230711e+00	1.231534e+00	1.285253e+00	1.188015e+00	1.318912e+00	1.357582e+00	1.311072e+00	1.310065e+00	1.298195e+00	1.371163e+00	1.282497e+00	1.239160e+00	1.232956e+00	9.515980e-01	9.123301e-01	1.374241e+00	1.376786e+00	1.398830e+00	1.260780e+00	1.206710e+00	1.343610e+00	1.347866e+00	1.358059e+00	1.355531e+00	1.358878e+00	1.297086e+00	1.297726e+00	1.292788e+00	1.299488e+00	1.336096e+00	1.325091e+00	1.338888e+00	1.336762e+00	1.309362e+00	1.203801e+00	1.115539e+00	8.239206e-01	1.169857e+00	1.298685e+00	1.194848e+00	1.282816e+00	1.293726e+00	1.187143e+00	1.273710e+00	1.000807e+00	1.112832e+00	1.170414e+00	1.254973e+00	1.405868e+00	1.425208e+00	1.435112e+00	1.268456e+00	1.301567e+00	1.272375e+00	1.158440e+00	1.323186e+00	1.309397e+00	1.324720e+00	1.319085e+00	1.331179e+00	1.219234e+00	1.187193e+00	1.205890e+00	1.266685e+00	1.263560e+00	1.262981e+00	1.365575e+00	1.370888e+00	1.408037e+00	1.322151e+00	1.342731e+00	1.145187e+00	1.047063e+00	1.081521e+00	1.297340e+00	1.330014e+00	1.341176e+00	1.350475e+00	1.298252e+00	1.276334e+00	1.025881e+00	9.001422e-01	9.009315e-01	8.400171e-01	1.324201e+00	1.112378e+00	1.002289e+00	1.184488e+00	1.169057e+00	1.257318e+00	1.248412e+00	1.254394e+00	1.380765e+00	1.354457e+00	1.342623e+00	1.347699e+00	1.053869e+00	1.039221e+00	9.879880e-01	1.258952e+00	1.312994e+00	1.333190e+00	1.170872e+00	1.205785e+00	1.229283e+00	1.348420e+00	1.216465e+00	1.195735e+00	1.205902e+00	1.067730e+00	1.198559e+00	1.221286e+00	1.181567e+00	1.374406e+00	1.393870e+00	1.398764e+00	8.604098e-01	8.136389e-01	8.519088e-01	1.283778e+00	1.284165e+00	1.289429e+00	1.282657e+00	1.345321e+00	1.356470e+00	1.356009e+00	1.334395e+00	1.197059e+00	8.589530e-01	9.214299e-01	8.403576e-01	1.068641e+00	1.149853e+00	1.124771e+00	1.255451e+00	1.253102e+00	1.397591e+00	1.349810e+00	1.393246e+00	1.273869e+00	1.290680e+00	9.374667e-01	7.562899e-01	1.329779e+00	1.129417e+00	1.232849e+00	1.198866e+00	1.347265e+00	1.367574e+00	1.371845e+00	1.371604e+00	1.347633e+00	1.405485e+00	1.335794e+00	1.272133e+00	1.321127e+00	1.208031e+00	1.146259e+00	1.203436e+00	1.114268e+00	1.438802e+00	1.098001e+00	1.134036e+00	1.407253e+00	1.399371e+00	1.329497e+00	1.364119e+00	1.382639e+00	1.241094e+00	1.233748e+00	1.267363e+00	1.233777e+00	1.239572e+00	1.241352e+00	1.204001e+00	1.213783e+00	8.472584e-01	1.273109e+00	1.463887e+00	1.450913e+00	1.474418e+00	1.478152e+00	1.149556e+00	1.227979e+00	1.371858e+00	1.354117e+00	1.014469e+00	9.366468e-01	8.909664e-01	9.498542e-01	1.059757e+00	8.392305e-01	1.292401e+00	1.255877e+00	1.231356e+00	1.322384e+00	1.336498e+00	1.197295e+00	1.186282e+00	1.466844e+00	1.491708e+00	1.501782e+00	1.214889e+00	1.271779e+00	1.278740e+00	1.132666e+00	1.261471e+00	1.260408e+00	1.285699e+00	1.285537e+00	1.253110e+00	1.259064e+00	1.061642e+00	1.151404e+00	1.283028e+00	1.348094e+00	1.356475e+00	1.280379e+00	1.260730e+00	1.289361e+00	1.113002e+00	1.345455e+00	1.365663e+00	1.323318e+00	1.317634e+00	1.004467e+00	1.072438e+00	1.179761e+00	1.203311e+00	1.184952e+00	8.163690e-01	8.657410e-01	1.458866e+00	1.257900e+00	1.258299e+00	1.160421e+00	1.239990e+00	1.238139e+00	7.434832e-01	1.278295e+00	1.362351e+00	1.495680e+00	1.460995e+00	1.608435e+00	1.261184e+00	1.003541e+00	1.052455e+00	1.056198e+00	1.348283e+00	1.367427e+00	1.165444e+00	1.242834e+00	1.265490e+00	1.223834e+00	1.344331e+00	1.255164e+00	1.253591e+00	1.254949e+00	1.255241e+00	1.112928e+00	1.084943e+00	1.153346e+00	8.483084e-01	1.367202e+00	1.365349e+00	7.206197e-01	1.181984e+00	1.148867e+00	1.362921e+00	1.201568e+00	1.169103e+00	1.236024e+00	1.118210e+00	1.085175e+00	1.363718e+00	1.337585e+00	9.814262e-01	1.341413e+00	1.337735e+00	1.344832e+00	1.439986e+00	1.420313e+00	1.427591e+00	1.399613e+00	7.722260e-01	1.372906e+00	9.881862e-01	1.188354e+00	1.230166e+00	7.634474e-01	6.421179e-01	1.191721e+00	1.289340e+00	1.301102e+00	1.258298e+00	1.497384e+00	1.335252e+00	1.300958e+00	1.352892e+00	1.087579e+00	1.056561e+00	1.106803e+00	1.269190e+00	1.276729e+00	1.253666e+00	1.263475e+00	1.068765e+00	6.476502e-01	5.841237e-01	1.188503e+00	9.111285e-01	1.458395e+00	1.214432e+00	1.238844e+00	1.185024e+00	1.376249e+00	1.377893e+00	1.378086e+00	1.375818e+00	9.069791e-01	1.113324e+00	1.102265e+00	1.244785e+00	1.367536e+00	1.368195e+00	1.360997e+00	1.210775e+00	1.225360e+00	1.219327e+00	1.253100e+00	1.254744e+00	1.462081e+00	1.233687e+00	1.215189e+00	1.226209e+00	1.346686e+00	1.246052e+00	1.229116e+00	1.251563e+00	1.056532e+00	1.075074e+00	1.270903e+00	1.337087e+00	1.268037e+00	1.270518e+00	1.286442e+00	8.820738e-01	8.447022e-01	1.178948e+00	9.334441e-01	8.844675e-01	9.051493e-01	8.431965e-01	1.368968e+00	1.365754e+00	1.284412e+00	1.279060e+00	1.279726e+00	1.299977e+00	1.103822e+00	1.071516e+00	1.154710e+00	9.250673e-01	8.392634e-01	1.230860e+00	1.216220e+00	1.232007e+00	9.866926e-01	1.327488e+00	1.154446e+00	1.255482e+00	1.257471e+00	1.241203e+00	1.197943e+00	1.542813e+00	1.530271e+00	1.529231e+00	1.333564e+00	1.344056e+00	1.029467e+00	9.746238e-01	1.220423e+00	1.172651e+00	1.206080e+00	1.354492e+00	1.324731e+00	1.277213e+00	1.262256e+00	1.137657e+00	6.610182e-01	1.294983e+00	1.371118e+00	1.367062e+00	1.258407e+00	1.271382e+00	1.288446e+00	1.107739e+00	1.274746e+00	1.251242e+00	1.346197e+00	1.296814