# vtk DataFile Version 3.0
vtk output
ASCII
DATASET UNSTRUCTURED_GRID
POINTS 198 double
0.000000e+00	0.000000e+00	0.0	3.469112e-03	3.600731e-03	0.0	7.206915e-03	7.174590e-03	0.0	1.160548e-02	1.027192e-02	0.0	1.625377e-02	1.333805e-02	0.0	2.137181e-02	1.602204e-02	0.0	2.672726e-02	1.868383e-02	0.0	3.249510e-02	2.095200e-02	0.0	3.850114e-02	2.319468e-02	0.0	4.483249e-02	2.517837e-02	0.0	5.138646e-02	2.720367e-02	0.0	5.817245e-02	2.925404e-02	0.0	6.511690e-02	3.156850e-02	0.0	7.224006e-02	3.409702e-02	0.0	7.944050e-02	3.708743e-02	0.0	8.684276e-02	4.022973e-02	0.0	9.450794e-02	4.338045e-02	0.0	1.024695e-01	4.644291e-02	0.0	1.108300e-01	4.914321e-02	0.0	1.195072e-01	5.163100e-02	0.0	1.285970e-01	5.355035e-02	0.0	1.379473e-01	5.545094e-02	0.0	1.476453e-01	5.684112e-02	0.0	1.575938e-01	5.826722e-02	0.0	1.678128e-01	5.957130e-02	0.0	1.782886e-01	6.084416e-02	0.0	1.890085e-01	6.216643e-02	0.0	1.999625e-01	6.359366e-02	0.0	2.111566e-01	6.505216e-02	0.0	2.225849e-01	6.655329e-02	0.0	2.342433e-01	6.809110e-02	0.0	2.461339e-01	6.959662e-02	0.0	2.583017e-01	7.058778e-02	0.0	2.706830e-01	7.159633e-02	0.0	2.832930e-01	7.189196e-02	0.0	2.961179e-01	7.164706e-02	0.0	3.091235e-01	7.129540e-02	0.0	3.221824e-01	6.939915e-02	0.0	3.354088e-01	6.747858e-02	0.0	3.487305e-01	6.517656e-02	0.0	3.621435e-01	6.253895e-02	0.0	3.756886e-01	5.987571e-02	0.0	3.894620e-01	5.781852e-02	0.0	4.033430e-01	5.574527e-02	0.0	4.173939e-01	5.459825e-02	0.0	4.316039e-01	5.441505e-02	0.0	4.458792e-01	5.426221e-02	0.0	4.601257e-01	5.580972e-02	0.0	4.744095e-01	5.736128e-02	0.0	4.887064e-01	5.899687e-02	0.0	5.030026e-01	6.070518e-02	0.0	5.172956e-01	6.235069e-02	0.0	5.316613e-01	6.259355e-02	0.0	5.459896e-01	6.283576e-02	0.0	5.601696e-01	6.169125e-02	0.0	5.742102e-01	5.949552e-02	0.0	5.881530e-01	5.723014e-02	0.0	6.017026e-01	5.357109e-02	0.0	6.151472e-01	4.994037e-02	0.0	6.284274e-01	4.617674e-02	0.0	6.415264e-01	4.226758e-02	0.0	6.544850e-01	3.840036e-02	0.0	6.674460e-01	3.514763e-02	0.0	6.802684e-01	3.203022e-02	0.0	6.929685e-01	2.921291e-02	0.0	7.056305e-01	2.716071e-02	0.0	7.180967e-01	2.514023e-02	0.0	7.304367e-01	2.376846e-02	0.0	7.425952e-01	2.266892e-02	0.0	7.545434e-01	2.176200e-02	0.0	7.662989e-01	2.145355e-02	0.0	7.778214e-01	2.115121e-02	0.0	7.891065e-01	2.134186e-02	0.0	8.001498e-01	2.161531e-02	0.0	8.109440e-01	2.199032e-02	0.0	8.214875e-01	2.243401e-02	0.0	8.317837e-01	2.276318e-02	0.0	8.418329e-01	2.290458e-02	0.0	8.516274e-01	2.295974e-02	0.0	8.611568e-01	2.243934e-02	0.0	8.704332e-01	2.193277e-02	0.0	8.794205e-01	2.101128e-02	0.0	8.881472e-01	1.999397e-02	0.0	8.966108e-01	1.889911e-02	0.0	9.047981e-01	1.761431e-02	0.0	9.127425e-01	1.636761e-02	0.0	9.204276e-01	1.504288e-02	0.0	9.278719e-01	1.373347e-02	0.0	9.350807e-01	1.245073e-02	0.0	9.420554e-01	1.118304e-02	0.0	9.488046e-01	9.955966e-03	0.0	9.553269e-01	8.739136e-03	0.0	9.616322e-01	7.562790e-03	0.0	9.677207e-01	6.404266e-03	0.0	9.736006e-01	5.281425e-03	0.0	9.792732e-01	4.177388e-03	0.0	9.847459e-01	3.104030e-03	0.0	9.900221e-01	2.054114e-03	0.0	9.951058e-01	1.022465e-03	0.0	1.000000e+00	0.000000e+00	0.0	9.950043e-01	2.020990e-04	0.0	9.898191e-01	4.083869e-04	0.0	9.844376e-01	5.628108e-04	0.0	9.788554e-01	6.692652e-04	0.0	9.730682e-01	7.493416e-04	0.0	9.670709e-01	7.673967e-04	0.0	9.608593e-01	7.615268e-04	0.0	9.544287e-01	6.890672e-04	0.0	9.477747e-01	5.993800e-04	0.0	9.408942e-01	4.154965e-04	0.0	9.337813e-01	2.254016e-04	0.0	9.264355e-01	-7.142858e-05	0.0	9.188502e-01	-3.986556e-04	0.0	9.110243e-01	-7.931555e-04	0.0	9.029561e-01	-1.287238e-03	0.0	8.946385e-01	-1.796600e-03	0.0	8.860807e-01	-2.487190e-03	0.0	8.772703e-01	-3.213661e-03	0.0	8.682148e-01	-4.069503e-03	0.0	8.589148e-01	-5.074905e-03	0.0	8.493611e-01	-6.133463e-03	0.0	8.395755e-01	-7.428214e-03	0.0	8.295339e-01	-8.756828e-03	0.0	8.192411e-01	-1.014790e-02	0.0	8.086955e-01	-1.157811e-02	0.0	7.978830e-01	-1.291955e-02	0.0	7.868125e-01	-1.421872e-02	0.0	7.754842e-01	-1.542970e-02	0.0	7.638923e-01	-1.645338e-02	0.0	7.520631e-01	-1.749802e-02	0.0	7.400097e-01	-1.864647e-02	0.0	7.277310e-01	-1.981799e-02	0.0	7.152798e-01	-2.137801e-02	0.0	7.026626e-01	-2.331667e-02	0.0	6.898447e-01	-2.528618e-02	0.0	6.770924e-01	-2.854135e-02	0.0	6.641662e-01	-3.186313e-02	0.0	6.512057e-01	-3.566937e-02	0.0	6.382917e-01	-4.018843e-02	0.0	6.252358e-01	-4.475715e-02	0.0	6.120386e-01	-4.933948e-02	0.0	5.987199e-01	-5.395308e-02	0.0	5.852362e-01	-5.840010e-02	0.0	5.713373e-01	-6.178136e-02	0.0	5.573576e-01	-6.518231e-02	0.0	5.430734e-01	-6.706058e-02	0.0	5.285970e-01	-6.804458e-02	0.0	5.140786e-01	-6.874134e-02	0.0	4.995208e-01	-6.811201e-02	0.0	4.849552e-01	-6.748235e-02	0.0	4.703985e-01	-6.682647e-02	0.0	4.558654e-01	-6.616210e-02	0.0	4.413734e-01	-6.593942e-02	0.0	4.269413e-01	-6.677344e-02	0.0	4.125778e-01	-6.760350e-02	0.0	3.984683e-01	-6.987431e-02	0.0	3.844853e-01	-7.238509e-02	0.0	3.706559e-01	-7.509309e-02	0.0	3.570244e-01	-7.815047e-02	0.0	3.435275e-01	-8.117765e-02	0.0	3.300860e-01	-8.372372e-02	0.0	3.167885e-01	-8.616412e-02	0.0	3.035975e-01	-8.807863e-02	0.0	2.904731e-01	-8.907543e-02	0.0	2.775420e-01	-9.005753e-02	0.0	2.647831e-01	-8.995700e-02	0.0	2.522318e-01	-8.971537e-02	0.0	2.399161e-01	-8.915808e-02	0.0	2.278503e-01	-8.814859e-02	0.0	2.160163e-01	-8.715850e-02	0.0	2.044552e-01	-8.583534e-02	0.0	1.931388e-01	-8.450921e-02	0.0	1.820916e-01	-8.303890e-02	0.0	1.713245e-01	-8.136948e-02	0.0	1.608080e-01	-7.973892e-02	0.0	1.506689e-01	-7.749442e-02	0.0	1.407911e-01	-7.525201e-02	0.0	1.312809e-01	-7.265860e-02	0.0	1.221869e-01	-6.954453e-02	0.0	1.133372e-01	-6.651414e-02	0.0	1.050758e-01	-6.272709e-02	0.0	9.711078e-02	-5.889184e-02	0.0	8.943809e-02	-5.504830e-02	0.0	8.223289e-02	-5.086170e-02	0.0	7.524382e-02	-4.680067e-02	0.0	6.852908e-02	-4.276253e-02	0.0	6.207172e-02	-3.876931e-02	0.0	5.581637e-02	-3.490651e-02	0.0	4.964981e-02	-3.135644e-02	0.0	4.368473e-02	-2.792237e-02	0.0	3.781319e-02	-2.479243e-02	0.0	3.210963e-02	-2.182150e-02	0.0	2.658660e-02	-1.897861e-02	0.0	2.126683e-02	-1.621116e-02	0.0	1.627216e-02	-1.328675e-02	0.0	1.158029e-02	-1.027078e-02	0.0	7.198393e-03	-7.142918e-03	0.0	3.268893e-03	-3.756054e-03	0.0	
CELLS 198	594
2	113	114	2	114	115	2	115	116	2	116	117	2	117	118	2	118	119	2	119	120	2	120	121	2	121	122	2	122	123	2	123	124	2	124	125	2	125	126	2	126	127	2	127	128	2	128	129	2	129	130	2	130	131	2	131	132	2	132	133	2	133	134	2	134	135	2	135	136	2	136	137	2	137	138	2	138	139	2	139	140	2	140	141	2	141	142	2	142	143	2	143	144	2	144	145	2	145	146	2	146	147	2	147	148	2	148	149	2	149	150	2	150	151	2	151	152	2	152	153	2	153	154	2	154	155	2	155	156	2	156	157	2	157	158	2	158	159	2	159	160	2	160	161	2	161	162	2	162	163	2	163	164	2	164	165	2	165	166	2	166	167	2	167	168	2	168	169	2	169	170	2	170	171	2	171	172	2	172	173	2	173	174	2	174	175	2	175	176	2	176	177	2	177	178	2	178	179	2	179	180	2	180	181	2	181	182	2	182	183	2	183	184	2	184	185	2	185	186	2	186	187	2	187	188	2	188	189	2	0	1	2	1	2	2	2	3	2	3	4	2	4	5	2	5	6	2	6	7	2	7	8	2	8	9	2	9	10	2	10	11	2	11	12	2	12	13	2	13	14	2	14	15	2	15	16	2	16	17	2	17	18	2	18	19	2	19	20	2	20	21	2	21	22	2	22	23	2	23	24	2	24	25	2	25	26	2	26	27	2	27	28	2	28	29	2	29	30	2	30	31	2	31	32	2	32	33	2	33	34	2	34	35	2	35	36	2	36	37	2	37	38	2	38	39	2	39	40	2	40	41	2	41	42	2	42	43	2	43	44	2	44	45	2	45	46	2	46	47	2	47	48	2	48	49	2	49	50	2	50	51	2	51	52	2	52	53	2	53	54	2	189	190	2	190	191	2	191	192	2	192	193	2	193	194	2	194	195	2	195	196	2	196	197	2	197	0	2	54	55	2	55	56	2	56	57	2	57	58	2	58	59	2	59	60	2	60	61	2	61	62	2	62	63	2	63	64	2	64	65	2	65	66	2	66	67	2	67	68	2	68	69	2	69	70	2	70	71	2	71	72	2	72	73	2	73	74	2	74	75	2	75	76	2	76	77	2	77	78	2	78	79	2	79	80	2	80	81	2	81	82	2	82	83	2	83	84	2	84	85	2	85	86	2	86	87	2	87	88	2	88	89	2	89	90	2	90	91	2	91	92	2	92	93	2	93	94	2	94	95	2	95	96	2	96	97	2	97	98	2	98	99	2	99	100	2	100	101	2	101	102	2	102	103	2	103	104	2	104	105	2	105	106	2	106	107	2	107	108	2	108	109	2	109	110	2	110	111	2	111	112	2	112	113	
CELL_TYPES 198
3	3	3	3	3	3	3	3	3	3	3	3	3	3	3	3	3	3	3	3	3	3	3	3	3	3	3	3	3	3	3	3	3	3	3	3	3	3	3	3	3	3	3	3	3	3	3	3	3	3	3	3	3	3	3	3	3	3	3	3	3	3	3	3	3	3	3	3	3	3	3	3	3	3	3	3	3	3	3	3	3	3	3	3	3	3	3	3	3	3	3	3	3	3	3	3	3	3	3	3	3	3	3	3	3	3	3	3	3	3	3	3	3	3	3	3	3	3	3	3	3	3	3	3	3	3	3	3	3	3	3	3	3	3	3	3	3	3	3	3	3	3	3	3	3	3	3	3	3	3	3	3	3	3	3	3	3	3	3	3	3	3	3	3	3	3	3	3	3	3	3	3	3	3	3	3	3	3	3	3	3	3	3	3	3	3	3	3	3	3	3	3	3	3	3	3	3	3	
POINT_DATA 198

SCALARS Density double 1
LOOKUP_TABLE default
1.476701e+00	1.142230e+00	1.224100e+00	1.176869e+00	1.145699e+00	1.125213e+00	1.112058e+00	1.112608e+00	1.141076e+00	1.172226e+00	1.211162e+00	1.236779e+00	1.249252e+00	1.249633e+00	1.223502e+00	1.162459e+00	1.102526e+00	1.025020e+00	9.529626e-01	8.812496e-01	8.348395e-01	7.990463e-01	7.709588e-01	7.718353e-01	7.711210e-01	7.818129e-01	8.053557e-01	8.285047e-01	8.471430e-01	8.699933e-01	8.854618e-01	8.625581e-01	8.387987e-01	8.045358e-01	7.463271e-01	7.179208e-01	6.450455e-01	5.712942e-01	5.546805e-01	5.334328e-01	5.271072e-01	5.632235e-01	6.905043e-01	1.041841e+00	1.238716e+00	1.210238e+00	1.212770e+00	1.194726e+00	1.140611e+00	1.106978e+00	1.060433e+00	9.688462e-01	8.964821e-01	8.336681e-01	7.674334e-01	8.061986e-01	9.350385e-01	1.046321e+00	1.112048e+00	1.145133e+00	1.177764e+00	1.210323e+00	1.227748e+00	1.235860e+00	1.252588e+00	1.255816e+00	1.257753e+00	1.263994e+00	1.257916e+00	1.261698e+00	1.256169e+00	1.250073e+00	1.244573e+00	1.229858e+00	1.219337e+00	1.203865e+00	1.185727e+00	1.174840e+00	1.158097e+00	1.154931e+00	1.159438e+00	1.159424e+00	1.173004e+00	1.178562e+00	1.189019e+00	1.199742e+00	1.206947e+00	1.217034e+00	1.223703e+00	1.230355e+00	1.236392e+00	1.242181e+00	1.248049e+00	1.253601e+00	1.259595e+00	1.265710e+00	1.272404e+00	1.283260e+00	1.283646e+00	1.297483e+00	1.377018e+00	1.359963e+00	1.358568e+00	1.362802e+00	1.362960e+00	1.364534e+00	1.365225e+00	1.366638e+00	1.367221e+00	1.367763e+00	1.368966e+00	1.368041e+00	1.369733e+00	1.368307e+00	1.369945e+00	1.369731e+00	1.368095e+00	1.369042e+00	1.365652e+00	1.364940e+00	1.361175e+00	1.353827e+00	1.349357e+00	1.341161e+00	1.336048e+00	1.333049e+00	1.329209e+00	1.332939e+00	1.341699e+00	1.346973e+00	1.357440e+00	1.367889e+00	1.364989e+00	1.379263e+00	1.377349e+00	1.360886e+00	1.361134e+00	1.339603e+00	1.308277e+00	1.278226e+00	1.238051e+00	1.172156e+00	1.108622e+00	9.889633e-01	9.207308e-01	9.583291e-01	9.963896e-01	1.068342e+00	1.156277e+00	1.202283e+00	1.250398e+00	1.296688e+00	1.305987e+00	1.322013e+00	1.328159e+00	1.300323e+00	1.287554e+00	1.265480e+00	1.229263e+00	1.024246e+00	7.747824e-01	7.000609e-01	7.386464e-01	7.824165e-01	8.466077e-01	9.120207e-01	9.377944e-01	9.851960e-01	1.016250e+00	1.038660e+00	1.059169e+00	1.062495e+00	1.066489e+00	1.046595e+00	1.054188e+00	1.074558e+00	1.078906e+00	1.126691e+00	1.146879e+00	1.186977e+00	1.262794e+00	1.294712e+00	1.341162e+00	1.388018e+00	1.416777e+00	1.450707e+00	1.482828e+00	1.501625e+00	1.518329e+00	1.534007e+00	1.543163e+00	1.553809e+00	1.561977e+00	1.573629e+00	1.594002e+00	1.615881e+00	1.619594e+00	1.678937e+00	
VECTORS Momentum double
1.898663e+01	2.248267e+02	0.0	1.728708e+02	1.671727e+02	0.0	1.997982e+02	1.648484e+02	0.0	2.270658e+02	1.538915e+02	0.0	2.464858e+02	1.445621e+02	0.0	2.620583e+02	1.336693e+02	0.0	2.736935e+02	1.211539e+02	0.0	2.792388e+02	1.066933e+02	0.0	2.814983e+02	9.631918e+01	0.0	2.779444e+02	8.635183e+01	0.0	2.735687e+02	8.361059e+01	0.0	2.684357e+02	8.526694e+01	0.0	2.644348e+02	9.075701e+01	0.0	2.642770e+02	1.017793e+02	0.0	2.703285e+02	1.134287e+02	0.0	2.791224e+02	1.165038e+02	0.0	2.898598e+02	1.157386e+02	0.0	2.969399e+02	1.054569e+02	0.0	3.028755e+02	9.270195e+01	0.0	3.026876e+02	7.534557e+01	0.0	3.020366e+02	6.257620e+01	0.0	3.003891e+02	5.183428e+01	0.0	2.967198e+02	4.240974e+01	0.0	2.981596e+02	4.026193e+01	0.0	2.983629e+02	3.705139e+01	0.0	3.002028e+02	3.640227e+01	0.0	3.039039e+02	3.843061e+01	0.0	3.072965e+02	4.017609e+01	0.0	3.089113e+02	4.046571e+01	0.0	3.114083e+02	4.126035e+01	0.0	3.146854e+02	4.103923e+01	0.0	3.123398e+02	3.300386e+01	0.0	3.103364e+02	2.521782e+01	0.0	3.079429e+02	1.676000e+01	0.0	2.972098e+02	9.938634e-01	0.0	2.930519e+02	-5.988796e+00	0.0	2.759115e+02	-2.180180e+01	0.0	2.533457e+02	-3.702630e+01	0.0	2.495277e+02	-4.046706e+01	0.0	2.421822e+02	-4.542836e+01	0.0	2.406495e+02	-4.737707e+01	0.0	2.468167e+02	-4.380113e+01	0.0	2.648520e+02	-4.292900e+01	0.0	2.643288e+02	-3.079328e+01	0.0	2.578758e+02	-1.046168e+01	0.0	2.560540e+02	-2.815876e+00	0.0	2.512968e+02	1.257327e+01	0.0	2.579807e+02	2.835959e+01	0.0	2.638975e+02	2.968595e+01	0.0	2.705813e+02	3.151964e+01	0.0	2.821391e+02	3.368251e+01	0.0	2.869391e+02	1.944695e+01	0.0	2.883250e+02	5.122385e+00	0.0	2.888907e+02	-8.396790e+00	0.0	2.742136e+02	-3.062116e+01	0.0	2.709722e+02	-4.330657e+01	0.0	2.670805e+02	-5.726242e+01	0.0	2.540326e+02	-6.803186e+01	0.0	2.458108e+02	-6.779740e+01	0.0	2.357596e+02	-6.837330e+01	0.0	2.226697e+02	-6.629576e+01	0.0	2.135761e+02	-5.851149e+01	0.0	2.093786e+02	-5.164861e+01	0.0	2.031593e+02	-4.737214e+01	0.0	1.994428e+02	-3.837772e+01	0.0	1.984402e+02	-3.217940e+01	0.0	1.961307e+02	-2.686200e+01	0.0	1.970457e+02	-1.970115e+01	0.0	1.969261e+02	-1.656142e+01	0.0	1.981440e+02	-1.011883e+01	0.0	2.007501e+02	-5.287924e+00	0.0	2.037293e+02	-1.068627e+00	0.0	2.087909e+02	4.338423e+00	0.0	2.141204e+02	6.302902e+00	0.0	2.199981e+02	8.494856e+00	0.0	2.269485e+02	8.431089e+00	0.0	2.324616e+02	5.308264e+00	0.0	2.383160e+02	2.508449e+00	0.0	2.419804e+02	-5.716026e+00	0.0	2.421146e+02	-1.332058e+01	0.0	2.425704e+02	-1.887869e+01	0.0	2.393913e+02	-2.635399e+01	0.0	2.368604e+02	-2.914506e+01	0.0	2.331137e+02	-3.324171e+01	0.0	2.287806e+02	-3.591019e+01	0.0	2.250976e+02	-3.700611e+01	0.0	2.209107e+02	-3.845744e+01	0.0	2.173249e+02	-3.842020e+01	0.0	2.141179e+02	-3.850654e+01	0.0	2.109970e+02	-3.834433e+01	0.0	2.078234e+02	-3.824182e+01	0.0	2.046289e+02	-3.816117e+01	0.0	2.014537e+02	-3.793587e+01	0.0	1.981253e+02	-3.775299e+01	0.0	1.947070e+02	-3.750458e+01	0.0	1.908149e+02	-3.726593e+01	0.0	1.863856e+02	-3.677696e+01	0.0	1.813410e+02	-3.623010e+01	0.0	1.699743e+02	-3.635543e+01	0.0	1.779100e+02	-8.940413e+00	0.0	2.347093e+02	-1.055375e+01	0.0	2.307202e+02	-8.134633e+00	0.0	2.271702e+02	-5.115642e+00	0.0	2.279963e+02	-3.853189e+00	0.0	2.267072e+02	-1.869316e+00	0.0	2.262708e+02	-2.346787e-01	0.0	2.257991e+02	1.390061e+00	0.0	2.252870e+02	2.790969e+00	0.0	2.247273e+02	4.525806e+00	0.0	2.243347e+02	5.989843e+00	0.0	2.239637e+02	7.517057e+00	0.0	2.235109e+02	9.329796e+00	0.0	2.232732e+02	1.040360e+01	0.0	2.228632e+02	1.246969e+01	0.0	2.227808e+02	1.359629e+01	0.0	2.224298e+02	1.582235e+01	0.0	2.227684e+02	1.819909e+01	0.0	2.231256e+02	1.969913e+01	0.0	2.235218e+02	2.262776e+01	0.0	2.247654e+02	2.452928e+01	0.0	2.258398e+02	2.746386e+01	0.0	2.284104e+02	3.027780e+01	0.0	2.315175e+02	3.093398e+01	0.0	2.339786e+02	3.171349e+01	0.0	2.375040e+02	3.074320e+01	0.0	2.394211e+02	2.889007e+01	0.0	2.402219e+02	2.701683e+01	0.0	2.400663e+02	2.339356e+01	0.0	2.369456e+02	2.085214e+01	0.0	2.327281e+02	2.141332e+01	0.0	2.286712e+02	2.165824e+01	0.0	2.235925e+02	2.452812e+01	0.0	2.202335e+02	3.091121e+01	0.0	2.177771e+02	3.326764e+01	0.0	2.117715e+02	4.339643e+01	0.0	2.136966e+02	5.508917e+01	0.0	2.188661e+02	5.994286e+01	0.0	2.212918e+02	7.112920e+01	0.0	2.313981e+02	8.087915e+01	0.0	2.445112e+02	8.505563e+01	0.0	2.547686e+02	8.826692e+01	0.0	2.675346e+02	9.044674e+01	0.0	2.848476e+02	8.045712e+01	0.0	2.922219e+02	7.099210e+01	0.0	3.007332e+02	5.560164e+01	0.0	3.130878e+02	3.071214e+01	0.0	3.087214e+02	1.762210e+01	0.0	3.085174e+02	6.025438e-02	0.0	3.004744e+02	-1.338475e+01	0.0	2.868659e+02	-1.229272e+01	0.0	2.763052e+02	-1.263395e+01	0.0	2.646669e+02	-8.378791e+00	0.0	2.550806e+02	5.510612e+00	0.0	2.517741e+02	1.448602e+01	0.0	2.476904e+02	2.665650e+01	0.0	2.491236e+02	4.237382e+01	0.0	2.585338e+02	4.828768e+01	0.0	2.637975e+02	5.557629e+01	0.0	2.722508e+02	6.076074e+01	0.0	2.807791e+02	5.813277e+01	0.0	2.833564e+02	5.135689e+01	0.0	2.856475e+02	4.592712e+01	0.0	3.036031e+02	3.302045e+01	0.0	3.072296e+02	2.305317e+01	0.0	3.191596e+02	9.829967e+00	0.0	3.279637e+02	-5.019060e+00	0.0	3.276167e+02	-1.030059e+01	0.0	3.321388e+02	-2.178799e+01	0.0	3.319005e+02	-2.785509e+01	0.0	3.315629e+02	-3.283425e+01	0.0	3.313955e+02	-3.834523e+01	0.0	3.295459e+02	-4.123585e+01	0.0	3.294870e+02	-4.755129e+01	0.0	3.272960e+02	-5.067309e+01	0.0	3.275823e+02	-6.169568e+01	0.0	3.254627e+02	-7.294969e+01	0.0	3.204154e+02	-7.959632e+01	0.0	3.179958e+02	-9.771916e+01	0.0	3.087597e+02	-1.054570e+02	0.0	3.007245e+02	-1.202549e+02	0.0	2.877991e+02	-1.358737e+02	0.0	2.740968e+02	-1.346375e+02	0.0	2.607290e+02	-1.414380e+02	0.0	2.441798e+02	-1.423548e+02	0.0	2.307478e+02	-1.362481e+02	0.0	2.177255e+02	-1.331287e+02	0.0	2.045322e+02	-1.269856e+02	0.0	1.942300e+02	-1.160453e+02	0.0	1.859887e+02	-1.070794e+02	0.0	1.779169e+02	-9.875367e+01	0.0	1.711262e+02	-9.022752e+01	0.0	1.633580e+02	-8.458963e+01	0.0	1.533685e+02	-7.914515e+01	0.0	1.379124e+02	-7.574895e+01	0.0	1.134446e+02	-6.939775e+01	0.0	7.865756e+01	-5.310864e+01	0.0	3.751138e+01	-2.762981e+01	0.0	-2.750181e+01	3.168137e+01	0.0	
SCALARS Energy double 1
LOOKUP_TABLE default
3.251635e+05	2.549378e+05	2.732896e+05	2.643502e+05	2.586387e+05	2.550020e+05	2.526704e+05	2.527546e+05	2.585369e+05	2.645334e+05	2.723056e+05	2.773719e+05	2.798521e+05	2.801652e+05	2.753646e+05	2.633344e+05	2.517171e+05	2.361255e+05	2.217002e+05	2.068811e+05	1.973247e+05	1.898946e+05	1.838382e+05	1.841351e+05	1.839722e+05	1.862543e+05	1.912949e+05	1.962312e+05	2.000804e+05	2.048709e+05	2.082704e+05	2.033928e+05	1.984135e+05	1.913605e+05	1.787576e+05	1.727850e+05	1.568502e+05	1.402840e+05	1.367463e+05	1.319409e+05	1.306127e+05	1.380793e+05	1.646372e+05	2.356451e+05	2.763109e+05	2.701934e+05	2.704598e+05	2.671436e+05	2.561866e+05	2.496369e+05	2.408430e+05	2.223009e+05	2.076633e+05	1.951034e+05	1.805980e+05	1.881763e+05	2.141725e+05	2.363489e+05	2.495124e+05	2.558517e+05	2.619581e+05	2.682599e+05	2.716620e+05	2.730401e+05	2.763420e+05	2.769347e+05	2.772086e+05	2.785430e+05	2.772280e+05	2.780699e+05	2.770002e+05	2.758352e+05	2.749053e+05	2.720382e+05	2.701054e+05	2.671916e+05	2.636519e+05	2.616838e+05	2.583730e+05	2.577321e+05	2.587306e+05	2.585806e+05	2.613147e+05	2.623050e+05	2.642953e+05	2.663735e+05	2.676910e+05	2.696443e+05	2.708986e+05	2.721559e+05	2.732845e+05	2.743636e+05	2.754633e+05	2.764927e+05	2.776161e+05	2.787493e+05	2.799869e+05	2.820959e+05	2.817351e+05	2.848670e+05	3.043480e+05	3.005215e+05	3.000496e+05	3.009892e+05	3.009601e+05	3.012742e+05	3.013993e+05	3.016767e+05	3.017758e+05	3.018744e+05	3.021154e+05	3.019005e+05	3.022520e+05	3.019340e+05	3.022823e+05	3.022273e+05	3.019029e+05	3.021271e+05	3.014365e+05	3.013527e+05	3.006177e+05	2.991940e+05	2.983988e+05	2.967839e+05	2.958690e+05	2.953187e+05	2.945340e+05	2.952977e+05	2.969862e+05	2.978988e+05	2.999282e+05	3.019257e+05	3.011890e+05	3.041351e+05	3.035400e+05	3.002354e+05	3.005815e+05	2.962692e+05	2.902752e+05	2.846876e+05	2.768734e+05	2.639151e+05	2.517065e+05	2.275307e+05	2.141826e+05	2.225771e+05	2.297874e+05	2.444093e+05	2.619281e+05	2.705241e+05	2.799031e+05	2.889261e+05	2.903382e+05	2.935655e+05	2.947011e+05	2.890048e+05	2.868948e+05	2.826376e+05	2.756220e+05	2.335860e+05	1.833106e+05	1.688968e+05	1.782214e+05	1.870068e+05	2.008008e+05	2.146336e+05	2.197374e+05	2.297156e+05	2.359791e+05	2.405134e+05	2.447032e+05	2.452440e+05	2.461247e+05	2.419380e+05	2.436700e+05	2.478195e+05	2.484055e+05	2.583676e+05	2.619733e+05	2.700335e+05	2.853094e+05	2.910622e+05	3.002175e+05	3.092291e+05	3.144841e+05	3.210151e+05	3.271513e+05	3.305139e+05	3.335997e+05	3.365222e+05	3.381164e+05	3.400719e+05	3.414559e+05	3.435062e+05	3.472618e+05	3.512178e+05	3.514182e+05	3.642456e+05	
SCALARS Pressure double 1
LOOKUP_TABLE default
1.231706e+05	9.184914e+04	9.835361e+04	9.295335e+04	8.920158e+04	8.661848e+04	8.495634e+04	8.503910e+04	8.789982e+04	9.136055e+04	9.540951e+04	9.812058e+04	9.942735e+04	9.923008e+04	9.609704e+04	8.959427e+04	8.301576e+04	7.507604e+04	6.762425e+04	6.067091e+04	5.613701e+04	5.270003e+04	5.022893e+04	5.019820e+04	5.014424e+04	5.110819e+04	5.321534e+04	5.530725e+04	5.711665e+04	5.926368e+04	6.056046e+04	5.848437e+04	5.625028e+04	5.290082e+04	4.783122e+04	4.517953e+04	3.898904e+04	3.316396e+04	3.165763e+04	3.001211e+04	2.941984e+04	3.291836e+04	4.500358e+04	8.066325e+04	9.976978e+04	9.724120e+04	9.774368e+04	9.558151e+04	9.010880e+04	8.644752e+04	8.111002e+04	7.184596e+04	6.451337e+04	5.800262e+04	5.239885e+04	5.658990e+04	6.971010e+04	8.131971e+04	8.811130e+04	9.181657e+04	9.561725e+04	9.920059e+04	1.010888e+05	1.021735e+05	1.039504e+05	1.043376e+05	1.046519e+05	1.052122e+05	1.046819e+05	1.049882e+05	1.043792e+05	1.036934e+05	1.029537e+05	1.013531e+05	1.000917e+05	9.830813e+04	9.634120e+04	9.500397e+04	9.323135e+04	9.291094e+04	9.328095e+04	9.342679e+04	9.481537e+04	9.551275e+04	9.669722e+04	9.787447e+04	9.874456e+04	9.985363e+04	1.006240e+05	1.013865e+05	1.020907e+05	1.027691e+05	1.034512e+05	1.041072e+05	1.048036e+05	1.055270e+05	1.063217e+05	1.075086e+05	1.079867e+05	1.090555e+05	1.137219e+05	1.123704e+05	1.124188e+05	1.127648e+05	1.128417e+05	1.130055e+05	1.130903e+05	1.132419e+05	1.133197e+05	1.133856e+05	1.135098e+05	1.134440e+05	1.136061e+05	1.134911e+05	1.136402e+05	1.136303e+05	1.134580e+05	1.135212e+05	1.131827e+05	1.130505e+05	1.126422e+05	1.118349e+05	1.112731e+05	1.103996e+05	1.097621e+05	1.094021e+05	1.090209e+05	1.093897e+05	1.103607e+05	1.110494e+05	1.121979e+05	1.133727e+05	1.132289e+05	1.146164e+05	1.146305e+05	1.129369e+05	1.126661e+05	1.104412e+05	1.069245e+05	1.033886e+05	9.900539e+04	9.195773e+04	8.487711e+04	7.272375e+04	6.535613e+04	6.837671e+04	7.272177e+04	7.994489e+04	8.912379e+04	9.449521e+04	9.972445e+04	1.047554e+05	1.061664e+05	1.078045e+05	1.085350e+05	1.057800e+05	1.040133e+05	1.015688e+05	9.758879e+04	7.738037e+04	5.191737e+04	4.364543e+04	4.603555e+04	5.053904e+04	5.623374e+04	6.226070e+04	6.498189e+04	6.939510e+04	7.255965e+04	7.482937e+04	7.686606e+04	7.733498e+04	7.766714e+04	7.581383e+04	7.638701e+04	7.842205e+04	7.915624e+04	8.370184e+04	8.622524e+04	9.033884e+04	9.808156e+04	1.020192e+05	1.069664e+05	1.121805e+05	1.156568e+05	1.194273e+05	1.230432e+05	1.253874e+05	1.273730e+05	1.292104e+05	1.303961e+05	1.316729e+05	1.327685e+05	1.342559e+05	1.366857e+05	1.393722e+05	1.402992e+05	1.454886e+05	
SCALARS Temperature double 1
LOOKUP_TABLE default
2.905662e+02	2.801251e+02	2.799006e+02	2.751487e+02	2.712266e+02	2.681676e+02	2.661329e+02	2.662605e+02	2.683513e+02	2.715050e+02	2.744226e+02	2.763748e+02	2.772593e+02	2.766248e+02	2.736124e+02	2.684930e+02	2.623022e+02	2.551522e+02	2.472048e+02	2.398346e+02	2.342484e+02	2.297573e+02	2.269620e+02	2.265655e+02	2.265316e+02	2.277288e+02	2.301863e+02	2.325506e+02	2.348747e+02	2.373029e+02	2.382592e+02	2.362010e+02	2.336131e+02	2.290590e+02	2.232609e+02	2.192277e+02	2.105633e+02	2.022259e+02	1.988226e+02	1.959960e+02	1.944337e+02	2.036047e+02	2.270445e+02	2.697148e+02	2.805806e+02	2.799045e+02	2.807634e+02	2.786993e+02	2.752074e+02	2.720469e+02	2.664537e+02	2.583318e+02	2.506908e+02	2.423733e+02	2.378545e+02	2.445272e+02	2.597147e+02	2.707455e+02	2.760186e+02	2.793159e+02	2.828188e+02	2.855245e+02	2.868298e+02	2.880046e+02	2.891000e+02	2.894311e+02	2.898558e+02	2.899690e+02	2.899013e+02	2.898782e+02	2.894652e+02	2.889656e+02	2.881720e+02	2.870863e+02	2.859597e+02	2.844736e+02	2.830463e+02	2.817041e+02	2.804448e+02	2.802472e+02	2.802694e+02	2.807110e+02	2.815852e+02	2.823183e+02	2.833058e+02	2.841921e+02	2.850068e+02	2.858193e+02	2.864548e+02	2.870647e+02	2.876472e+02	2.882094e+02	2.887579e+02	2.893021e+02	2.898515e+02	2.904420e+02	2.910899e+02	2.918495e+02	2.930591e+02	2.928036e+02	2.876967e+02	2.878428e+02	2.882624e+02	2.882511e+02	2.884144e+02	2.884999e+02	2.885701e+02	2.886583e+02	2.887335e+02	2.887869e+02	2.888492e+02	2.888769e+02	2.889323e+02	2.889407e+02	2.889743e+02	2.889943e+02	2.889011e+02	2.888621e+02	2.887156e+02	2.885287e+02	2.882820e+02	2.877695e+02	2.872723e+02	2.867590e+02	2.861942e+02	2.858971e+02	2.857241e+02	2.858882e+02	2.865429e+02	2.872020e+02	2.879349e+02	2.887274e+02	2.889738e+02	2.894877e+02	2.899254e+02	2.890975e+02	2.883516e+02	2.872007e+02	2.847134e+02	2.817704e+02	2.785805e+02	2.732959e+02	2.667088e+02	2.561689e+02	2.472772e+02	2.485558e+02	2.542527e+02	2.606819e+02	2.685109e+02	2.738001e+02	2.778329e+02	2.814304e+02	2.831903e+02	2.840741e+02	2.846755e+02	2.833890e+02	2.814193e+02	2.795989e+02	2.765575e+02	2.631825e+02	2.334336e+02	2.171867e+02	2.171136e+02	2.250191e+02	2.313903e+02	2.378152e+02	2.413877e+02	2.453785e+02	2.487282e+02	2.509741e+02	2.528132e+02	2.535593e+02	2.536945e+02	2.523481e+02	2.524247e+02	2.542369e+02	2.555829e+02	2.587977e+02	2.619070e+02	2.651323e+02	2.705734e+02	2.744978e+02	2.778411e+02	2.815480e+02	2.843807e+02	2.867835e+02	2.890660e+02	2.908859e+02	2.922414e+02	2.934272e+02	2.943629e+02	2.952085e+02	2.961085e+02	2.972086e+02	2.987201e+02	3.004673e+02	3.017723e+02	3.018734e+02	
SCALARS Mach double 1
LOOKUP_TABLE default
4.471232e-01	6.274833e-01	6.309214e-01	7.009196e-01	7.554431e-01	7.963919e-01	8.229916e-01	8.213374e-01	7.939664e-01	7.516534e-01	7.112084e-01	6.833194e-01	6.704364e-01	6.796948e-01	7.225791e-01	7.920927e-01	8.719112e-01	9.600229e-01	1.054523e+00	1.140106e+00	1.204192e+00	1.255452e+00	1.287304e+00	1.291821e+00	1.292207e+00	1.278568e+00	1.250561e+00	1.223589e+00	1.197029e+00	1.169211e+00	1.158231e+00	1.181845e+00	1.211453e+00	1.263411e+00	1.329478e+00	1.375505e+00	1.474996e+00	1.572084e+00	1.612246e+00	1.645884e+00	1.664595e+00	1.555909e+00	1.286364e+00	7.758347e-01	6.204665e-01	6.308605e-01	6.176354e-01	6.490984e-01	7.000830e-01	7.442430e-01	8.188294e-01	9.212815e-01	1.013424e+00	1.110792e+00	1.162880e+00	1.085793e+00	9.042212e-01	7.619667e-01	6.884622e-01	6.398131e-01	5.851170e-01	5.401273e-01	5.173551e-01	4.961530e-01	4.756990e-01	4.693736e-01	4.611539e-01	4.589415e-01	4.602652e-01	4.607173e-01	4.687178e-01	4.782471e-01	4.930718e-01	5.127860e-01	5.326201e-01	5.579293e-01	5.814361e-01	6.029106e-01	6.225638e-01	6.256074e-01	6.252659e-01	6.184481e-01	6.047872e-01	5.931549e-01	5.772167e-01	5.626253e-01	5.489529e-01	5.350507e-01	5.239765e-01	5.131716e-01	5.026784e-01	4.923827e-01	4.821636e-01	4.718465e-01	4.612377e-01	4.496014e-01	4.365347e-01	4.207771e-01	3.945709e-01	4.002298e-01	5.017796e-01	4.991163e-01	4.914023e-01	4.916122e-01	4.885845e-01	4.869929e-01	4.856816e-01	4.840330e-01	4.826228e-01	4.816180e-01	4.804466e-01	4.799238e-01	4.788779e-01	4.787189e-01	4.780833e-01	4.777054e-01	4.794666e-01	4.802028e-01	4.829587e-01	4.864559e-01	4.910397e-01	5.004539e-01	5.094525e-01	5.186103e-01	5.285402e-01	5.337052e-01	5.366936e-01	5.338584e-01	5.224266e-01	5.107142e-01	4.974323e-01	4.827374e-01	4.780929e-01	4.682850e-01	4.597946e-01	4.757473e-01	4.897491e-01	5.107373e-01	5.539060e-01	6.018644e-01	6.508768e-01	7.269910e-01	8.155104e-01	9.477034e-01	1.053675e+00	1.038652e+00	9.708728e-01	8.922061e-01	7.918559e-01	7.199546e-01	6.619934e-01	6.072216e-01	5.790978e-01	5.645838e-01	5.545437e-01	5.758595e-01	6.073963e-01	6.355199e-01	6.806720e-01	8.607908e-01	1.213504e+00	1.398850e+00	1.399687e+00	1.309440e+00	1.236831e+00	1.163331e+00	1.122190e+00	1.075876e+00	1.036621e+00	1.010062e+00	9.881450e-01	9.792060e-01	9.775831e-01	9.937034e-01	9.927882e-01	9.710628e-01	9.548121e-01	9.155491e-01	8.768806e-01	8.359072e-01	7.642921e-01	7.101461e-01	6.618723e-01	6.053722e-01	5.594824e-01	5.181758e-01	4.763447e-01	4.406853e-01	4.124449e-01	3.862860e-01	3.644850e-01	3.437258e-01	3.202996e-01	2.893167e-01	2.407917e-01	1.690232e-01	8.260116e-02	7.174107e-02	
SCALARS Pressure_Coefficient double 1
LOOKUP_TABLE default