# vtk DataFile Version 3.0
vtk output
ASCII
DATASET UNSTRUCTURED_GRID
POINTS 1838 double
1.000000e+02	0.000000e+00	0.0	9.917900e+01	1.278772e+01	0.0	9.672949e+01	2.536546e+01	0.0	9.269168e+01	3.752670e+01	0.0	8.713187e+01	4.907176e+01	0.0	8.014136e+01	5.981105e+01	0.0	7.183494e+01	6.956826e+01	0.0	6.234898e+01	7.818315e+01	0.0	5.183926e+01	8.551428e+01	0.0	4.047833e+01	9.144126e+01	0.0	2.845276e+01	9.586679e+01	0.0	1.595999e+01	9.871818e+01	0.0	3.205158e+00	9.994862e+01	0.0	-9.602303e+00	9.953791e+01	0.0	-2.225209e+01	9.749279e+01	0.0	-3.453651e+01	9.384684e+01	0.0	-4.625383e+01	8.865993e+01	0.0	-5.721167e+01	8.201723e+01	0.0	-6.723009e+01	7.402780e+01	0.0	-7.614460e+01	6.482284e+01	0.0	-8.380881e+01	5.455349e+01	0.0	-9.009689e+01	4.338837e+01	0.0	-9.490557e+01	3.151082e+01	0.0	-9.815592e+01	1.911586e+01	0.0	-9.979454e+01	6.407022e+00	0.0	-9.979454e+01	-6.407022e+00	0.0	-9.815592e+01	-1.911586e+01	0.0	-9.490557e+01	-3.151082e+01	0.0	-9.009689e+01	-4.338837e+01	0.0	-8.380881e+01	-5.455349e+01	0.0	-7.614460e+01	-6.482284e+01	0.0	-6.723009e+01	-7.402780e+01	0.0	-5.721167e+01	-8.201723e+01	0.0	-4.625383e+01	-8.865993e+01	0.0	-3.453651e+01	-9.384684e+01	0.0	-2.225209e+01	-9.749279e+01	0.0	-9.602303e+00	-9.953791e+01	0.0	3.205158e+00	-9.994862e+01	0.0	1.595999e+01	-9.871818e+01	0.0	2.845276e+01	-9.586679e+01	0.0	4.047833e+01	-9.144126e+01	0.0	5.183926e+01	-8.551428e+01	0.0	6.234898e+01	-7.818315e+01	0.0	7.183494e+01	-6.956826e+01	0.0	8.014136e+01	-5.981105e+01	0.0	8.713187e+01	-4.907176e+01	0.0	9.269168e+01	-3.752670e+01	0.0	9.672949e+01	-2.536546e+01	0.0	9.917900e+01	-1.278772e+01	0.0	0.000000e+00	0.000000e+00	0.0	3.115911e-03	3.910384e-03	0.0	6.364985e-03	7.948545e-03	0.0	1.071990e-02	1.110314e-02	0.0	1.524839e-02	1.434793e-02	0.0	2.045046e-02	1.685416e-02	0.0	2.584913e-02	1.942193e-02	0.0	3.170306e-02	2.143410e-02	0.0	3.778290e-02	2.343620e-02	0.0	4.423802e-02	2.492194e-02	0.0	5.095208e-02	2.621220e-02	0.0	5.798572e-02	2.697099e-02	0.0	6.527204e-02	2.718292e-02	0.0	7.280937e-02	2.697741e-02	0.0	8.052333e-02	2.600298e-02	0.0	8.847919e-02	2.500422e-02	0.0	9.669428e-02	2.412159e-02	0.0	1.051815e-01	2.387956e-02	0.0	1.139348e-01	2.408928e-02	0.0	1.228324e-01	2.530442e-02	0.0	1.319297e-01	2.700689e-02	0.0	1.411923e-01	2.910917e-02	0.0	1.506064e-01	3.167231e-02	0.0	1.602620e-01	3.430121e-02	0.0	1.701506e-01	3.702324e-02	0.0	1.802778e-01	3.981157e-02	0.0	1.906917e-01	4.246299e-02	0.0	2.014261e-01	4.482919e-02	0.0	2.123940e-01	4.724686e-02	0.0	2.237072e-01	4.907740e-02	0.0	2.352846e-01	5.074017e-02	0.0	2.470988e-01	5.230886e-02	0.0	2.591936e-01	5.334559e-02	0.0	2.714992e-01	5.440038e-02	0.0	2.840285e-01	5.516172e-02	0.0	2.967649e-01	5.575638e-02	0.0	3.096889e-01	5.632486e-02	0.0	3.227999e-01	5.660613e-02	0.0	3.360778e-01	5.689098e-02	0.0	3.495133e-01	5.697853e-02	0.0	3.630948e-01	5.692617e-02	0.0	3.768082e-01	5.684011e-02	0.0	3.906347e-01	5.637939e-02	0.0	4.045684e-01	5.591510e-02	0.0	4.185822e-01	5.517680e-02	0.0	4.326662e-01	5.423928e-02	0.0	4.468136e-01	5.326805e-02	0.0	4.609872e-01	5.197371e-02	0.0	4.751977e-01	5.067601e-02	0.0	4.894265e-01	4.933661e-02	0.0	5.036601e-01	4.796835e-02	0.0	5.178880e-01	4.661909e-02	0.0	5.321112e-01	4.547052e-02	0.0	5.462976e-01	4.432492e-02	0.0	5.604493e-01	4.343874e-02	0.0	5.745470e-01	4.273787e-02	0.0	5.885661e-01	4.207911e-02	0.0	6.025056e-01	4.184497e-02	0.0	6.163379e-01	4.161263e-02	0.0	6.300502e-01	4.163938e-02	0.0	6.436300e-01	4.185485e-02	0.0	6.570645e-01	4.209103e-02	0.0	6.703308e-01	4.271309e-02	0.0	6.834304e-01	4.332733e-02	0.0	6.963501e-01	4.399274e-02	0.0	7.090806e-01	4.470264e-02	0.0	7.216157e-01	4.540165e-02	0.0	7.339620e-01	4.572915e-02	0.0	7.460970e-01	4.604955e-02	0.0	7.580079e-01	4.588857e-02	0.0	7.696891e-01	4.529665e-02	0.0	7.811229e-01	4.454762e-02	0.0	7.922141e-01	4.278002e-02	0.0	8.030692e-01	4.105005e-02	0.0	8.135511e-01	3.868480e-02	0.0	8.237695e-01	3.625203e-02	0.0	8.337130e-01	3.374067e-02	0.0	8.433895e-01	3.118999e-02	0.0	8.528405e-01	2.876910e-02	0.0	8.620954e-01	2.659885e-02	0.0	8.711061e-01	2.448585e-02	0.0	8.799249e-01	2.266674e-02	0.0	8.885088e-01	2.094038e-02	0.0	8.968604e-01	1.931728e-02	0.0	9.049895e-01	1.783917e-02	0.0	9.128790e-01	1.640461e-02	0.0	9.205367e-01	1.504166e-02	0.0	9.279611e-01	1.372599e-02	0.0	9.351525e-01	1.243994e-02	0.0	9.421130e-01	1.117517e-02	0.0	9.488498e-01	9.950445e-03	0.0	9.553613e-01	8.735790e-03	0.0	9.616575e-01	7.561309e-03	0.0	9.677384e-01	6.403394e-03	0.0	9.736120e-01	5.280862e-03	0.0	9.792794e-01	4.174979e-03	0.0	9.847480e-01	3.098958e-03	0.0	9.900212e-01	2.045064e-03	0.0	9.951029e-01	1.009280e-03	0.0	1.000000e+00	0.000000e+00	0.0	9.950057e-01	2.363795e-04	0.0	9.898217e-01	4.390131e-04	0.0	9.844428e-01	5.873941e-04	0.0	9.788648e-01	6.883228e-04	0.0	9.730834e-01	7.632743e-04	0.0	9.670938e-01	7.773285e-04	0.0	9.608916e-01	7.680099e-04	0.0	9.544726e-01	6.923174e-04	0.0	9.478322e-01	6.002014e-04	0.0	9.409675e-01	4.132130e-04	0.0	9.338727e-01	2.199565e-04	0.0	9.265475e-01	-8.141408e-05	0.0	9.189855e-01	-4.155066e-04	0.0	9.111870e-01	-8.392421e-04	0.0	9.031522e-01	-1.407720e-03	0.0	8.948708e-01	-1.993638e-03	0.0	8.863700e-01	-2.916744e-03	0.0	8.776228e-01	-3.907818e-03	0.0	8.686561e-01	-5.151616e-03	0.0	8.594819e-01	-6.739171e-03	0.0	8.500610e-01	-8.392757e-03	0.0	8.405060e-01	-1.066115e-02	0.0	8.307030e-01	-1.298837e-02	0.0	8.207007e-01	-1.556336e-02	0.0	8.104715e-01	-1.827011e-02	0.0	7.999844e-01	-2.097808e-02	0.0	7.892379e-01	-2.366977e-02	0.0	7.782428e-01	-2.636713e-02	0.0	7.669224e-01	-2.871688e-02	0.0	7.553723e-01	-3.111431e-02	0.0	7.435444e-01	-3.327741e-02	0.0	7.314741e-01	-3.535793e-02	0.0	7.191848e-01	-3.743654e-02	0.0	7.066646e-01	-3.939449e-02	0.0	6.939471e-01	-4.138332e-02	0.0	6.810401e-01	-4.339527e-02	0.0	6.679539e-01	-4.543185e-02	0.0	6.547013e-01	-4.750754e-02	0.0	6.413060e-01	-4.970133e-02	0.0	6.277649e-01	-5.191901e-02	0.0	6.141022e-01	-5.423117e-02	0.0	6.003269e-01	-5.661437e-02	0.0	5.864452e-01	-5.902533e-02	0.0	5.724908e-01	-6.157527e-02	0.0	5.584560e-01	-6.413992e-02	0.0	5.443651e-01	-6.677163e-02	0.0	5.302306e-01	-6.945722e-02	0.0	5.160576e-01	-7.214266e-02	0.0	5.018336e-01	-7.467668e-02	0.0	4.876021e-01	-7.721204e-02	0.0	4.733337e-01	-7.946832e-02	0.0	4.590506e-01	-8.148796e-02	0.0	4.447994e-01	-8.345217e-02	0.0	4.305099e-01	-8.458878e-02	0.0	4.162875e-01	-8.572004e-02	0.0	4.021208e-01	-8.623384e-02	0.0	3.880315e-01	-8.631385e-02	0.0	3.740553e-01	-8.627635e-02	0.0	3.602284e-01	-8.536131e-02	0.0	3.465369e-01	-8.445522e-02	0.0	3.330529e-01	-8.296460e-02	0.0	3.197615e-01	-8.115286e-02	0.0	3.066551e-01	-7.926795e-02	0.0	2.938361e-01	-7.675597e-02	0.0	2.812042e-01	-7.428066e-02	0.0	2.687912e-01	-7.173178e-02	0.0	2.565983e-01	-6.914598e-02	0.0	2.446145e-01	-6.661523e-02	0.0	2.327647e-01	-6.456700e-02	0.0	2.211408e-01	-6.255778e-02	0.0	2.096849e-01	-6.109566e-02	0.0	1.983959e-01	-6.022987e-02	0.0	1.873499e-01	-5.938272e-02	0.0	1.765204e-01	-5.933872e-02	0.0	1.659391e-01	-5.934217e-02	0.0	1.556101e-01	-5.931646e-02	0.0	1.455349e-01	-5.925320e-02	0.0	1.357145e-01	-5.919154e-02	0.0	1.262086e-01	-5.815823e-02	0.0	1.169606e-01	-5.708122e-02	0.0	1.081059e-01	-5.534871e-02	0.0	9.966989e-02	-5.283307e-02	0.0	9.147491e-02	-5.038931e-02	0.0	8.385763e-02	-4.709819e-02	0.0	7.649097e-02	-4.384022e-02	0.0	6.943258e-02	-4.050459e-02	0.0	6.271696e-02	-3.701233e-02	0.0	5.621233e-02	-3.362979e-02	0.0	4.989935e-02	-3.038637e-02	0.0	4.379045e-02	-2.724948e-02	0.0	3.783675e-02	-2.430747e-02	0.0	3.206791e-02	-2.149145e-02	0.0	2.650581e-02	-1.874721e-02	0.0	2.115120e-02	-1.606448e-02	0.0	1.608929e-02	-1.327031e-02	0.0	1.132178e-02	-1.038136e-02	0.0	6.839600e-03	-7.405104e-03	0.0	2.903830e-03	-4.025060e-03	0.0	5.594619e-01	8.279647e-02	0.0	5.627893e-01	6.527698e-02	0.0	5.767941e-01	7.440829e-02	0.0	8.726122e+01	1.785464e+01	0.0	7.537590e+01	-1.281467e+01	0.0	7.546972e+01	-2.505198e+01	0.0	8.656597e+01	-1.826002e+01	0.0	8.605257e+01	-5.057504e+00	0.0	2.680790e+01	2.342323e+01	0.0	3.741744e+01	2.719161e+01	0.0	2.989394e+01	3.471682e+01	0.0	8.145794e+01	3.528888e+01	0.0	7.210500e+01	3.250034e+01	0.0	7.638040e+01	2.374807e+01	0.0	6.837157e+01	-3.612923e+01	0.0	7.545952e+01	-4.395404e+01	0.0	8.104690e+01	-3.654089e+01	0.0	8.658914e+01	-2.848280e+01	0.0	5.317357e+01	4.239923e+01	0.0	4.791637e+01	3.036822e+01	0.0	5.710091e+01	3.171180e+01	0.0	5.554453e+01	-5.477519e+01	0.0	6.212433e+01	-6.129652e+01	0.0	6.550895e+01	-5.508796e+01	0.0	6.922908e+01	6.012808e+01	0.0	7.259588e+01	5.174390e+01	0.0	6.030187e+01	6.538999e+01	0.0	4.752180e+01	-6.377572e+01	0.0	4.605744e+01	-7.294866e+01	0.0	5.556659e+01	-6.919734e+01	0.0	6.614780e+01	-4.685450e+01	0.0	4.875735e+01	7.182667e+01	0.0	3.651828e+01	5.469814e+01	0.0	3.067806e+01	6.290975e+01	0.0	2.645160e+01	5.299964e+01	0.0	2.429553e+01	8.133801e+01	0.0	2.416539e+01	7.233298e+01	0.0	3.116046e+01	7.852980e+01	0.0	3.737133e+01	-6.627610e+01	0.0	2.645336e+01	-7.400167e+01	0.0	3.878906e+01	-7.929396e+01	0.0	-5.936832e+00	4.409758e+01	0.0	5.876083e+00	4.869758e+01	0.0	-2.107075e+00	5.581865e+01	0.0	2.053173e+01	8.907014e+01	0.0	1.417376e+01	8.037283e+01	0.0	8.272976e-01	-2.208477e-02	0.0	8.355235e-01	-1.882762e-02	0.0	1.639697e-01	4.269577e-02	0.0	1.566266e-01	4.304074e-02	0.0	5.095783e-01	-1.860658e-01	0.0	5.284049e-01	-2.374336e-01	0.0	5.489709e-01	-1.891532e-01	0.0	5.111694e-01	-1.050142e-01	0.0	5.277462e-01	-9.392652e-02	0.0	5.152493e-01	-8.808351e-02	0.0	9.970827e-01	2.526776e-01	0.0	1.107580e+00	3.558429e-01	0.0	9.724492e-01	3.524194e-01	0.0	9.180328e-01	1.977789e-02	0.0	9.317451e-01	1.847035e-02	0.0	9.245172e-01	1.958368e-02	0.0	9.038568e-01	4.111771e-02	0.0	9.117713e-01	3.214228e-02	0.0	9.145635e-01	4.283718e-02	0.0	8.839043e-01	5.315384e-02	0.0	8.858404e-01	4.333297e-02	0.0	8.947946e-01	4.842681e-02	0.0	8.770147e-01	-1.920626e-02	0.0	8.801750e-01	-1.046146e-02	0.0	8.725568e-01	-1.137549e-02	0.0	9.366669e-01	-5.277834e-03	0.0	9.413757e-01	-4.951961e-03	0.0	1.409424e-01	-6.384779e-02	0.0	1.241893e-01	-1.094366e-01	0.0	1.458769e-01	-9.975113e-02	0.0	1.335929e-01	-9.316753e-02	0.0	5.713046e-01	-7.298
[...]
POINT_DATA 1838

SCALARS Density double 1
LOOKUP_TABLE default
1.291827e+00	1.291882e+00	1.292114e+00	1.292194e+00	1.292131e+00	1.292088e+00	1.292056e+00	1.292016e+00	1.291966e+00	1.291919e+00	1.291883e+00	1.291863e+00	1.291869e+00	1.291909e+00	1.291974e+00	1.292042e+00	1.292103e+00	1.292151e+00	1.292189e+00	1.292216e+00	1.292236e+00	1.292251e+00	1.292262e+00	1.292272e+00	1.292280e+00	1.292288e+00	1.292297e+00	1.292307e+00	1.292320e+00	1.292336e+00	1.292357e+00	1.292384e+00	1.292419e+00	1.292464e+00	1.292517e+00	1.292573e+00	1.292637e+00	1.292684e+00	1.292694e+00	1.292675e+00	1.292636e+00	1.292581e+00	1.292532e+00	1.292476e+00	1.292418e+00	1.292376e+00	1.292382e+00	1.292314e+00	1.292062e+00	1.516222e+00	1.160583e+00	1.163075e+00	1.066839e+00	1.001227e+00	9.369535e-01	8.987239e-01	8.506110e-01	8.056444e-01	7.449826e-01	6.883672e-01	6.026104e-01	5.418200e-01	4.983380e-01	5.600842e-01	9.116671e-01	1.107608e+00	1.155284e+00	1.151504e+00	1.155720e+00	1.147735e+00	1.140784e+00	1.124339e+00	1.101588e+00	1.078370e+00	1.048156e+00	1.011283e+00	9.811655e-01	9.397149e-01	8.994254e-01	8.804085e-01	8.461311e-01	8.226464e-01	8.131287e-01	7.930387e-01	7.871717e-01	7.758743e-01	7.663375e-01	7.622839e-01	7.531840e-01	7.506657e-01	7.345230e-01	7.158467e-01	7.043101e-01	7.298490e-01	8.803946e-01	1.024926e+00	1.057288e+00	1.083288e+00	1.099853e+00	1.114364e+00	1.130635e+00	1.141397e+00	1.149686e+00	1.158015e+00	1.160040e+00	1.164917e+00	1.165420e+00	1.162457e+00	1.162642e+00	1.155135e+00	1.149303e+00	1.140044e+00	1.121480e+00	1.105898e+00	1.084676e+00	1.051610e+00	1.023745e+00	9.938281e-01	9.584895e-01	9.484311e-01	9.384976e-01	9.670769e-01	1.020289e+00	1.058123e+00	1.103160e+00	1.132064e+00	1.158276e+00	1.180802e+00	1.192269e+00	1.202390e+00	1.210959e+00	1.214380e+00	1.220538e+00	1.224023e+00	1.226525e+00	1.230060e+00	1.233148e+00	1.236248e+00	1.240081e+00	1.243965e+00	1.248147e+00	1.252410e+00	1.256502e+00	1.261271e+00	1.265834e+00	1.269742e+00	1.279061e+00	1.262022e+00	1.324383e+00	1.414363e+00	1.398823e+00	1.393922e+00	1.401750e+00	1.403165e+00	1.405233e+00	1.407127e+00	1.409885e+00	1.411412e+00	1.413731e+00	1.416326e+00	1.417711e+00	1.422942e+00	1.423059e+00	1.429584e+00	1.432105e+00	1.430742e+00	1.436036e+00	1.428929e+00	1.432078e+00	1.425821e+00	1.409464e+00	1.398555e+00	1.378407e+00	1.359507e+00	1.342384e+00	1.316463e+00	1.303215e+00	1.293492e+00	1.282831e+00	1.284519e+00	1.281061e+00	1.281030e+00	1.284109e+00	1.284143e+00	1.284179e+00	1.285416e+00	1.283501e+00	1.280277e+00	1.277004e+00	1.270916e+00	1.266810e+00	1.259579e+00	1.249736e+00	1.241018e+00	1.226675e+00	1.206395e+00	1.200867e+00	1.189112e+00	1.086587e+00	8.832848e-01	7.748384e-01	7.827684e-01	8.115636e-01	8.353452e-01	8.774792e-01	8.958778e-01	9.421738e-01	9.879725e-01	1.020530e+00	1.070379e+00	1.096381e+00	1.140410e+00	1.196211e+00	1.229457e+00	1.265257e+00	1.306895e+00	1.329422e+00	1.348069e+00	1.373295e+00	1.367356e+00	1.373753e+00	1.366852e+00	1.330248e+00	1.302639e+00	1.270434e+00	1.192944e+00	1.146856e+00	1.116327e+00	1.085154e+00	1.136021e+00	1.168857e+00	1.222213e+00	1.301976e+00	1.338329e+00	1.384511e+00	1.428293e+00	1.455200e+00	1.481154e+00	1.501283e+00	1.515842e+00	1.530994e+00	1.544450e+00	1.561124e+00	1.582185e+00	1.611267e+00	1.621002e+00	1.706904e+00	1.200515e+00	1.183888e+00	1.197737e+00	1.292046e+00	1.292195e+00	1.292336e+00	1.292231e+00	1.292001e+00	1.291804e+00	1.291966e+00	1.291821e+00	1.292144e+00	1.292144e+00	1.292111e+00	1.292400e+00	1.292388e+00	1.292358e+00	1.292330e+00	1.292010e+00	1.292041e+00	1.292081e+00	1.292501e+00	1.292493e+00	1.292457e+00	1.292056e+00	1.292073e+00	1.292014e+00	1.292575e+00	1.292595e+00	1.292538e+00	1.292425e+00	1.291958e+00	1.291873e+00	1.291830e+00	1.291768e+00	1.291835e+00	1.291809e+00	1.291864e+00	1.292647e+00	1.292705e+00	1.292639e+00	1.291438e+00	1.291477e+00	1.291585e+00	1.291846e+00	1.291798e+00	1.386743e+00	1.399931e+00	1.112567e+00	1.135901e+00	1.128751e+00	1.177480e+00	1.216545e+00	1.206380e+00	1.215903e+00	1.204121e+00	1.287616e+00	1.293673e+00	1.269618e+00	1.233183e+00	1.240804e+00	1.237836e+00	1.246909e+00	1.242887e+00	1.254856e+00	1.237686e+00	1.233342e+00	1.247097e+00	1.422681e+00	1.428685e+00	1.427374e+00	1.414082e+00	1.412598e+00	1.190919e+00	1.270309e+00	1.268209e+00	1.246024e+00	1.249349e+00	1.260563e+00	1.254755e+00	1.248376e+00	1.176415e+00	1.173363e+00	1.166699e+00	1.192241e+00	1.178437e+00	1.175553e+00	1.058110e+00	1.091246e+00	1.080790e+00	1.207416e+00	1.207483e+00	1.172664e+00	1.031099e+00	1.288175e+00	1.302873e+00	1.297812e+00	1.405851e+00	1.403278e+00	1.407438e+00	1.417175e+00	1.413303e+00	1.417220e+00	1.335023e+00	1.322190e+00	1.334916e+00	1.428250e+00	1.425894e+00	1.378314e+00	1.360202e+00	1.369282e+00	1.401413e+00	1.391883e+00	1.417094e+00	1.370061e+00	1.352063e+00	1.340842e+00	1.393049e+00	1.378933e+00	1.375848e+00	1.341574e+00	1.371730e+00	1.512196e+00	1.533837e+00	1.498516e+00	1.497169e+00	1.454846e+00	1.476704e+00	1.294781e+00	1.294975e+00	1.293780e+00	1.372386e+00	1.370522e+00	1.361334e+00	1.309115e+00	1.321359e+00	1.388960e+00	1.403662e+00	1.396833e+00	1.426929e+00	1.422265e+00	1.414377e+00	1.408248e+00	1.406237e+00	1.298665e+00	1.292008e+00	1.302670e+00	1.426172e+00	1.423501e+00	1.423958e+00	1.420774e+00	1.421753e+00	8.419413e-01	7.700851e-01	7.439493e-01	1.162211e+00	1.139044e+00	1.169353e+00	1.067218e+00	1.022884e+00	9.964383e-01	9.591253e-01	1.147676e+00	1.097626e+00	1.138501e+00	1.132364e+00	1.194943e+00	1.182886e+00	1.173981e+00	9.243599e-01	9.265818e-01	9.554942e-01	9.927817e-01	9.517285e-01	1.145343e+00	1.098279e+00	1.161253e+00	1.187417e+00	1.179364e+00	1.168633e+00	8.403315e-01	1.166610e+00	9.188319e-01	9.223432e-01	8.717038e-01	1.268422e+00	1.257040e+00	1.257345e+00	1.312831e+00	1.290613e+00	1.292820e+00	1.265186e+00	1.264460e+00	1.264225e+00	1.220917e+00	1.232204e+00	1.221482e+00	1.280922e+00	1.273961e+00	1.268901e+00	1.275186e+00	1.225288e+00	1.213518e+00	1.277949e+00	1.300123e+00	1.282986e+00	1.291294e+00	1.290254e+00	1.276419e+00	1.370884e+00	1.372270e+00	1.374944e+00	1.296280e+00	1.310513e+00	1.309451e+00	1.297917e+00	1.303631e+00	1.292002e+00	8.187859e-01	8.119607e-01	8.396152e-01	7.948774e-01	8.039003e-01	1.195391e+00	1.198288e+00	1.242660e+00	1.239213e+00	1.204318e+00	8.170707e-01	9.815949e-01	1.279137e+00	1.271141e+00	1.276511e+00	1.255316e+00	1.264230e+00	1.267767e+00	8.608319e-01	8.231568e-01	8.478314e-01	1.269520e+00	1.273847e+00	1.163481e+00	1.176641e+00	1.156723e+00	1.136911e+00	1.152624e+00	1.142480e+00	1.407346e+00	1.404148e+00	1.405053e+00	1.411154e+00	1.418499e+00	1.419553e+00	1.297651e+00	1.291849e+00	1.298863e+00	1.291959e+00	1.286540e+00	1.287725e+00	1.312823e+00	1.310797e+00	1.329382e+00	1.286589e+00	1.285990e+00	1.285253e+00	1.286443e+00	1.193988e+00	1.151667e+00	1.193965e+00	1.308281e+00	1.292923e+00	1.280161e+00	1.253176e+00	1.296247e+00	1.281236e+00	1.283429e+00	1.280219e+00	8.780783e-01	9.435533e-01	1.080095e+00	8.846546e-01	8.446438e-01	8.745551e-01	8.090259e-01	1.121220e+00	1.116501e+00	1.053808e+00	1.219766e+00	1.257996e+00	1.235308e+00	1.172124e+00	1.191386e+00	1.134658e+00	1.292715e+00	1.292678e+00	1.086216e+00	1.041563e+00	1.060759e+00	9.946331e-01	1.017891e+00	1.033030e+00	1.081823e+00	1.094634e+00	1.129095e+00	1.284550e+00	1.257792e+00	1.292647e+00	1.292616e+00	1.292728e+00	1.305865e+00	1.245204e+00	1.235038e+00	1.260448e+00	1.321113e+00	1.300439e+00	1.298366e+00	1.299650e+00	1.289349e+00	1.292672e+00	1.295304e+00	1.291443e+00	1.291341e+00	1.291377e+00	1.291242e+00	1.282775e+00	1.280128e+00	1.269168e+00	1.265701e+00	1.240571e+00	1.252980e+00	1.203451e+00	1.201685e+00	1.240308e+00	1.217958e+00	1.008418e+00	9.928504e-01	1.202840e+00	1.208630e+00	1.212881e+00	9.772687e-01	1.188258e+00	1.204608e+00	1.134355e+00	1.327848e+00	1.304087e+00	1.229167e+00	1.262679e+00	1.170199e+00	1.308766e+00	1.300345e+00	1.309479e+00	1.218454e+00	1.355450e+00	1.348420e+00	1.358614e+00	1.346359e+00	1.330722e+00	1.357900e+00	1.364002e+00	1.322167e+00	1.336906e+00	1.098004e+00	1.306919e+00	1.300800e+00	1.302679e+00	1.404808e+00	1.385005e+00	1.292563e+00	1.292546e+00	1.482392e+00	1.459489e+00	1.469575e+00	1.471198e+00	1.479740e+00	1.451737e+00	1.476794e+00	1.494878e+00	1.292784e+00	1.292730e+00	1.292753e+00	1.553162e+00	1.533348e+00	1.548355e+00	1.513796e+00	1.534736e+00	1.293522e+00	1.293334e+00	1.293050e+00	1.564373e+00	1.549781e+00	1.300961e+00	1.300018e+00	1.297738e+00	1.296574e+00	1.296098e+00	1.294936e+00	1.292442e+00	1.292522e+00	1.292457e+00	1.292489e+00	1.292425e+00	1.292230e+00	1.292280e+00	1.292405e+00	1.292431e+00	1.292379e+00	1.292325e+00	1.292308e+00	1.292319e+00	1.292359e+00	1.292364e+00	1.292331e+00	1.292322e+00	1.292312e+00	1.292292e+00	1.292275e+00	1.292244e+00	1.292263e+00	1.292255e+00	1.292213e+00	1.292201e+00	1.292231e+00	9.159512e-01	9.275335e-01	8.668402e-01	1.033897e+00	1.148673e+00	1.097592e+00	1.292082e+00	1.292025e+00	1.291965e+00	1.292023e+00	1.291374e+00	1.291755e+00	1.292194e+00	1.292186e+00	1.292130e+00	1.292180e+00	6.119266e-01	5.661595e-01	6.843329e-01	1.292083e+00	1.178831e+00	1.065450e+00	1.043306e+00	1.179858e+00	1.173909e+00	1.188894e+00	5.253067e-01	5.873254e-01	8.634312e-01	8.166513e-01	1.291966e+00	1.292010e+00	1.177111e+00	9.447434e-01	8.662858e-01	1.277371e+00	1.269228e+00	1.245908e+00	1.291953e+00	1.291901e+00	7.868525e-01	8.659499e-01	8.339937e-01	8.544319e-01	8.344379e-01	8.234929e-01	7.934104e-01	7.933093e-01	7.752712e-01	8.776898e-01	8.861011e-01	8.576314e-01	7.462836e-01	7.388831e-01	7.748523e-01	1.032038e+00	1.065147e+00	1.291898e+00	9.225598e-01	7.974719e-01	8.064139e-01	8.210639e-01	8.473049e-01	9.851198e-01	1.066876e+00	7.606546e-01	1.158709e+00	1.086158e+00	1.092903e+00	1.105130e+00	1.106640e+00	1.291028e+00	1.290362e+00	1.291486e+00	1.150999e+00	1.151513e+00	1.128208e+00	1.089820e+00	1.070815e+00	1.077326e+00	1.110037e+00	1.292275e+00	1.292288e+00	1.292299e+00	1.292688e+00	1.292391e+00	1.395936e+00	1.390839e+00	1.390564e+00	1.292966e+00	1.292962e+00	1.293413e+00	1.292346e+00	1.292495e+00	1.292647e+00	1.292603e+00	1.292162e+00	1.292700e+00	1.291881e+00	1.291913e+00	1.291830e+00	1.291946e+00	1.291902e+00	1.292033e+00	1.292458e+00	1.292413e+00	1.292222e+00	1.292067e+00	1.292109e+00	1.292780e+00	1.292883e+00	1.292092e+00	1.292190e+00	8.289785e-01	1.292228e+00	1.293094e+00	1.293289e+00	1.577328e+00	1.558002e+00	1.291662e+00	1.291818e+00	1.291674e+00	1.292219e+00	1.291958e+00	1.289251e+00	1.290367e+00	1.287155e+00	1.289616e+00	1.289648e+00	1.292591e+00	1.292495e+00	1.292425e+00	1.292618e+00	1.292644e+00	1.292712e+00	1.292501e+00	1.292246e+00	1.292222e+00	1.292170e+00	1.291842e+00	1.291793e+00	1.292764e+00	1.292894e+00	1.292849e+00	1.292800e+00	1.292099e+00	1.292064e+00	1.292032e+00	1.291837e+00	1.291916e+00	1.291999e+00	1.292024e+00	1.291996e+00	1.292301e+00	1.292386e+00	1.292514e+00	1.292617e+00	1.292585e+00	1.292731e+00	1.292547e+00	1.292527e+00	1.292453e+00	1.291946e+00	1.292036e+00	1.292409e+00	1.292806e+00	1.064011e+00	7.731545e-01	1.291192e+00	1.291134e+00	1.291569e+00	1.294323e+00	1.293774e+00	1.291932e+00	1.291804e+00	1.292452e+00	1.291591e+00	1.304934e+00	1.300170e+00	1.308767e+00	1.294343e+00	1.295313e+00	1.294843e+00	1.291916e+00	1.292739e+00	1.293302e+00	1.292956e+00	1.294007e+00	1.294039e+00	1.292167e+00	1.292301e+00	1.292305e+00	1.291817e+00	1.291714e+00	1.291788e+00	1.292257e+00	1.292396e+00	1.292336e+00	1.292370e+00	1.292400e+00	1.292122e+00	1.292016e+00	1.292831e+00	1.292764e+00	1.292832e+00	1.291876e+00	1.292135e+00	1.292024e+00	1.292662e+00	1.292081e+00	1.292406e+00	1.292440e+00	1.292499e+00	1.292596e+00	1.292751e+00	1.291795e+00	1.292565e+00	1.291448e+00	1.291620e+00	1.292137e+00	1.292669e+00	1.291457e+00	1.292024e+00	1.291972e+00	1.292072e+00	1.293083e+00	1.292438e+00	1.290618e+00	1.289693e+00	1.290614e+00	1.292548e+00	1.291407e+00	1.291318e+00	1.291992e+00	1.292392e+00	1.291904e+00	1.292748e+00	1.292416e+00	1.268393e+00	1.261595e+00	1.292274e+00	1.292344e+00	1.291912e+00	1.291834e+00	1.292055e+00	1.292063e+00	1.292045e+00	1.292103e+00	1.292085e+00	1.291688e+00	1.292980e+00	1.292756e+00	1.291659e+00	1.291955e+00	1.292739e+00	1.292809e+00	1.292671e+00	1.291960e+00	1.292947e+00	1.291909e+00	1.291732e+00	1.291629e+00	1.293171e+00	1.293073e+00	1.292972e+00	1.292115e+00	1.291744e+00	1.292473e+00	1.292190e+00	1.292930e+00	1.291729e+00	1.293153e+00	1.292677e+00	1.293104e+00	1.292399e+00	1.292597e+00	1.292310e+00	1.291889e+00	1.287704e+00	1.291826e+00	1.291699e+00	1.292051e+00	1.291655e+00	1.293505e+00	1.270069e+00	1.195997e+00	1.226923e+00	1.290225e+00	1.294755e+00	1.377577e+00	1.313068e+00	1.293638e+00	1.288544e+00	1.288395e+00	1.291472e+00	1.296817e+00	1.296807e+00	1.298238e+00	1.290269e+00	1.290785e+00	1.291224e+00	1.295696e+00	1.392485e+00	1.341882e+00	1.396565e+00	1.293128e+00	1.292381e+00	9.947534e-01	9.764672e-01	9.316003e-01	1.293312e+00	1.295309e+00	1.294295e+00	1.294187e+00	1.288357e+00	1.289478e+00	1.295526e+00	1.402118e+00	1.399317e+00	1.403200e+00	1.285659e+00	1.293302e+00	1.298537e+00	1.293652e+00	1.292520e+00	1.290753e+00	1.291740e+00	1.287667e+00	1.291356e+00	1.296498e+00	1.299736e+00	1.299878e+00	1.298824e+00	1.293931e+00	1.289827e+00	1.180217e+00	1.228385e+00	1.213027e+00	1.298665e+00	1.332837e+00	1.352796e+00	1.351400e+00	1.291034e+00	1.288326e+00	1.284039e+00	1.280782e+00	1.286220e+00	1.295265e+00	1.283224e+00	1.290380e+00	1.292810e+00	1.290454e+00	1.296558e+00	1.292624e+00	1.292554e+00	1.297558e+00	1.301302e+00	1.292699e+00	1.404887e+00	1.222888e+00	1.193614e+00	1.190467e+00	1.277017e+00	1.294430e+00	1.325033e+00	1.330702e+00	1.319701e+00	1.293275e+00	1.298151e+00	1.285407e+00	1.291973e+00	1.288500e+00	1.289581e+00	1.291326e+00	1.296130e+00	1.300378e+00	1.299409e+00	1.289209e+00	1.285907e+00	1.290712e+00	1.292303e+00	1.273087e+00	1.296863e+00	1.302630e+00	1.304688e+00	1.303497e+00	1.309508e+00	1.310324e+00	1.292313e+00	1.271492e+00	1.305647e+00	1.310738e+00	1.146421e+00	1.154638e+00	1.130006e+00	1.264794e+00	1.276240e+00	1.295787e+00	1.296764e+00	1.292208e+00	1.296825e+00	1.292244e+00	1.299089e+00	1.304597e+00	1.311369e+00	1.169302e+00	1.175620e+00	1.257058e+00	1.191987e+00	1.176477e+00	1.248276e+00	1.302959e+00	1.320193e+00	1.330119e+00	1.343340e+00	1.286803e+00	1.302294e+00	1.302590e+00	1.314411e+00	1.320913e+00	1.322834e+00	1.400765e+00	1.400170e+00	1.256974e+00	1.326424e+00	1.337964e+00	6.594266e-01	1.165323e+00	1.115042e+00	1.277030e+00	1.158234e+00	1.283664e+00	1.294812e+00	1.284852e+00	1.306501e+00	1.306801e+00	1.297119e+00	1.310970e+00	1.322003e+00	1.167535e+00	1.222391e+00	1.202320e+00	1.309923e+00	1.067408e+00	1.068326e+00	1.230501e+00	1.219616e+00	1.208007e+00	1.290509e+00	1.280800e+00	1.286485e+00	1.284690e+00	1.282065e+00	1.305320e+00	1.303287e+00	1.318195e+00	1.346194e+00	1.334305e+00	1.332798e+00	1.286394e+00	1.443250e+00	1.320670e+00	1.318186e+00	1.335759e+00	1.349980e+00	1.198129e+00	1.220631e+00	1.130368e+00	1.144599e+00	1.224706e+00	1.308168e+00	1.299868e+00	1.313958e+00	1.313025e+00	1.318108e+00	1.334076e+00	1.315863e+00	1.275046e+00	1.266963e+00	1.288089e+00	1.112406e+00	1.318084e+00	1.324786e+00	1.298638e+00	1.297437e+00	1.282532e+00	1.318771e+00	1.203634e+00	1.245207e+00	1.239249e+00	1.207832e+00	1.368636e+00	1.435590e+00	1.188050e+00	1.168012e+00	1.574901e+00	1.589698e+00	1.342964e+00	9.319263e-01	9.720252e-01	1.288116e+00	1.246821e+00	1.067231e+00	9.920243e-01	1.315327e+00	1.151041e+00	1.191464e+00	1.136918e+00	1.257531e+00	1.309255e+00	1.316056e+00	1.350874e+00	1.341998e+00	1.350165e+00	1.304062e+00	1.328953e+00	1.349430e+00	1.305660e+00	1.096803e+00	1.375696e+00	1.367446e+00	1.259476e+00	1.241177e+00	1.344275e+00	1.335405e+00	1.266555e+00	1.303830e+00	9.182735e-01	9.475362e-01	9.696834e-01	1.226290e+00	1.128151e+00	1.158866e+00	8.897905e-01	1.212726e+00	1.190061e+00	9.841750e-01	1.026044e+00	9.894306e-01	1.139024e+00	9.846004e-01	1.107583e+00	1.316898e+00	1.327357e+00	1.328910e+00	1.308445e+00	1.324078e+00	1.281042e+00	1.334322e+00	1.307843e+00	1.284157e+00	1.239375e+00	1.281345e+00	1.272953e+00	1.447588e+00	1.427872e+00	1.455513e+00	1.476676e+00	1.442819e+00	1.428187e+00	1.407886e+00	1.312817e+00	1.348032e+00	1.309570e+00	1.337111e+00	1.348505e+00	1.197373e+00	1.364714e+00	1.388605e+00	1.405487e+00	1.071120e+00	1.106004e+00	1.018769e+00	1.242270e+00	1.273930e+00	1.270514e+00	7.659485e-01	1.044281e+00	1.170135e+00	1.350629e+00	1.354689e+00	1.306379e+00	1.182871e+00	1.179111e+00	8.528389e-01	7.698732e-01	8.510724e-01	8.455210e-01	1.246186e+00	1.252072e+00	1.374542e+00	1.292543e+00	1.337865e+00	1.301270e+00	1.316587e+00	1.116917e+00	1.154761e+00	1.383525e+00	1.380378e+00	1.354369e+00	1.297866e+00	1.373482e+00	1.332821e+00	1.335770e+00	1.320851e+00	1.368160e+00	1.373445e+00	1.353838e+00	1.315900e+00	1.303923e+00	1.277927e+00	1.371512e+00	1.344770e+00	1.392639e+00	1.347967e+00	7.196977e-01	9.506956e-01	1.252018e+00	1.253910e+00	1.258575e+00	1.267045e+00	1.487068e+00	1.360197e+00	1.421929e+00	8.785597e-01	9.059839e-01	1.181416e+00	1.215699e+00	1.112900e+00	1.223489e+00	1.200468e+00	1.020175e+00	1.118698e+00	1.165443e+00	1.169728e+00	1.170838e+00	1.157375e+00	1.049827e+00	1.178013e+00	1.203474e+00	1.085659e+00	1.155942e+00	1.440354e+00	1.473355e+00	1.652923e+00	1.628222e+00	1.281326e+00	1.318536e+00	1.198938e+00	1.093571e+00	1.056354e+00	9.578580e-01	1.020369e+00	9.533089e-01	1.078734e+00	1.103735e+00	1.412776e+00	1.312430e+00	1.246433e+00	1.351654e+00	1.298029e+00	1.375465e+00	1.321405e+00	1.309126e+00	1.320793e+00	1.320426e+00	1.352919e+00	1.290488e+00	1.382998e+00	1.383251e+00	1.371456e+00	1.296684e+00	1.269745e+00	1.194812e+00	1.305311e+00	1.307437e+00	1.294434e+00	1.290359e+00	1.191404e+00	1.153006e+00	1.166038e+00	1.508467e+00	1.386455e+00	1.242030e+00	8.885423e-01	9.028697e-01	9.302143e-01	7.744819e-01	8.046972e-01	7.744984e-01	1.057904e+00	1.140887e+00	1.286915e+00	1.288232e+00	1.290155e+00	1.286826e+00	1.151480e+00	1.128053e+00	1.169337e+00	1.130997e+00	1.198395e+00	1.170666e+00	1.166641e+00	1.006012e+00	1.002826e+00	1.437096e+00	1.477640e+00	1.509358e+00	1.123202e+00	1.160628e+00	1.118764e+00	1.032222e+00	1.358226e+00	1.160669e+00	1.183886e+00	1.208189e+00	1.207439e+00	1.262993e+00	9.028652e-01	1.356916e+00	1.295532e+00	1.293979e+00	1.405900e+00	1.345785e+00	1.225842e+00	1.219861e+00	1.315498e+00	1.388200e+00	1.196706e+00	1.191923e+00	1.107305e+00	1.087255e+00	1.110825e+00	1.363631e+00	1.356656e+00	1.363319e+00	1.416970e+00	1.278036e+00	1.282658e+00	1.185385e+00	1.216890e+00	1.245097e+00	1.068629e+00	1.287002e+00	1.295084e+00	1.378669e+00	1.383873e+00	1.369243e+00	1.323020e+00	1.266566e+00	1.297659e+00	1.297896e+00	1.306841e+00	1.282601e+00	1.291726e+00	7.741001e-01	8.890742e-01	1.045075e+00	1.275965e+00	1.287802e+00	1.290303e+00	1.288110e+00	1.343654e+00	1.161719e+00	1.021619e+00	1.064700e+00	1.418333e+00	1.218110e+00	1.293092e+00	1.302718e+00	1.298819e+00	9.075734e-01	1.293356e+00	1.264056e+00	1.279105e+00	1.205778e+00	1.383043e+00	1.392935e+00	1.416254e+00	1.416739e+00	1.468503e+00	1.100701e+00	1.211739e+00	9.220424e-01	1.166220e+00	1.324579e+00	1.310000e+00	1.316823e+00	1.339421e+00	1.166914e+00	1.182026e+00	1.200040e+00	1.249421e+00	1.225237e+00	1.179252e+00	1.213150e+00	1.094306e+00	1.107891e+00	9.694185e-01	1.527400e+00	1.545603e+00	9.897669e-01	9.591405e-01	8.660247e-01	1.016465e+00	1.194602e+00	1.068833e+00	1.219133e+00	1.235882e+00	1.233632e+00	1.158637e+00	1.116170e+00	1.291825e+00	1.293867e+00	1.297260e+00	9.517537e-01	1.131065e+00	1.227402e+00	1.145391e+00	7.420960e-01	8.281189e-01	8.388102e-01	1.350276e+00	1.305463e+00	1.447059e+00	1.498181e+00	1.451089e+00	1.345809e+00	1.270419e+00	1.293107e+00	1.319047e+00	1.316841e+00	1.321704e+00	1.211270e+00	1.303862e+00	1.307296e+00	1.312542e+00	1.423039e+00	9.293116e-01	9.494922e-01	1.243565e+00	1.287465e+00	1.619696e+00	1.619718e+00	1.351889e+00	1.335785e+00	1.399310e+00	1.400144e+00	1.387371e+00	1.357881e+00	1.367068e+00	1.380231e+00	1.354513e+00	1.320381e+00	1.256230e+00	1.319713e+00	1.306868e+00	7.862266e-01	1.163920e+00	1.127765e+00	1.158263e+00	1.116905e+00	1.297477e+00	1.284014e+00	1.218525