# vtk DataFile Version 3.0
vtk output
ASCII
DATASET UNSTRUCTURED_GRID
POINTS 198 double
0.000000e+00	0.000000e+00	0.0	3.115911e-03	3.910384e-03	0.0	6.364985e-03	7.948545e-03	0.0	1.071990e-02	1.110314e-02	0.0	1.524839e-02	1.434793e-02	0.0	2.045046e-02	1.685416e-02	0.0	2.584913e-02	1.942193e-02	0.0	3.170306e-02	2.143410e-02	0.0	3.778290e-02	2.343620e-02	0.0	4.423802e-02	2.492194e-02	0.0	5.095208e-02	2.621220e-02	0.0	5.798572e-02	2.697099e-02	0.0	6.527204e-02	2.718292e-02	0.0	7.280937e-02	2.697741e-02	0.0	8.052333e-02	2.600298e-02	0.0	8.847919e-02	2.500422e-02	0.0	9.669428e-02	2.412159e-02	0.0	1.051815e-01	2.387956e-02	0.0	1.139348e-01	2.408928e-02	0.0	1.228324e-01	2.530442e-02	0.0	1.319297e-01	2.700689e-02	0.0	1.411923e-01	2.910917e-02	0.0	1.506064e-01	3.167231e-02	0.0	1.602620e-01	3.430121e-02	0.0	1.701506e-01	3.702324e-02	0.0	1.802778e-01	3.981157e-02	0.0	1.906917e-01	4.246299e-02	0.0	2.014261e-01	4.482919e-02	0.0	2.123940e-01	4.724686e-02	0.0	2.237072e-01	4.907740e-02	0.0	2.352846e-01	5.074017e-02	0.0	2.470988e-01	5.230886e-02	0.0	2.591936e-01	5.334559e-02	0.0	2.714992e-01	5.440038e-02	0.0	2.840285e-01	5.516172e-02	0.0	2.967649e-01	5.575638e-02	0.0	3.096889e-01	5.632486e-02	0.0	3.227999e-01	5.660613e-02	0.0	3.360778e-01	5.689098e-02	0.0	3.495133e-01	5.697853e-02	0.0	3.630948e-01	5.692617e-02	0.0	3.768082e-01	5.684011e-02	0.0	3.906347e-01	5.637939e-02	0.0	4.045684e-01	5.591510e-02	0.0	4.185822e-01	5.517680e-02	0.0	4.326662e-01	5.423928e-02	0.0	4.468136e-01	5.326805e-02	0.0	4.609872e-01	5.197371e-02	0.0	4.751977e-01	5.067601e-02	0.0	4.894265e-01	4.933661e-02	0.0	5.036601e-01	4.796835e-02	0.0	5.178880e-01	4.661909e-02	0.0	5.321112e-01	4.547052e-02	0.0	5.462976e-01	4.432492e-02	0.0	5.604493e-01	4.343874e-02	0.0	5.745470e-01	4.273787e-02	0.0	5.885661e-01	4.207911e-02	0.0	6.025056e-01	4.184497e-02	0.0	6.163379e-01	4.161263e-02	0.0	6.300502e-01	4.163938e-02	0.0	6.436300e-01	4.185485e-02	0.0	6.570645e-01	4.209103e-02	0.0	6.703308e-01	4.271309e-02	0.0	6.834304e-01	4.332733e-02	0.0	6.963501e-01	4.399274e-02	0.0	7.090806e-01	4.470264e-02	0.0	7.216157e-01	4.540165e-02	0.0	7.339620e-01	4.572915e-02	0.0	7.460970e-01	4.604955e-02	0.0	7.580079e-01	4.588857e-02	0.0	7.696891e-01	4.529665e-02	0.0	7.811229e-01	4.454762e-02	0.0	7.922141e-01	4.278002e-02	0.0	8.030692e-01	4.105005e-02	0.0	8.135511e-01	3.868480e-02	0.0	8.237695e-01	3.625203e-02	0.0	8.337130e-01	3.374067e-02	0.0	8.433895e-01	3.118999e-02	0.0	8.528405e-01	2.876910e-02	0.0	8.620954e-01	2.659885e-02	0.0	8.711061e-01	2.448585e-02	0.0	8.799249e-01	2.266674e-02	0.0	8.885088e-01	2.094038e-02	0.0	8.968604e-01	1.931728e-02	0.0	9.049895e-01	1.783917e-02	0.0	9.128790e-01	1.640461e-02	0.0	9.205367e-01	1.504166e-02	0.0	9.279611e-01	1.372599e-02	0.0	9.351525e-01	1.243994e-02	0.0	9.421130e-01	1.117517e-02	0.0	9.488498e-01	9.950445e-03	0.0	9.553613e-01	8.735790e-03	0.0	9.616575e-01	7.561309e-03	0.0	9.677384e-01	6.403394e-03	0.0	9.736120e-01	5.280862e-03	0.0	9.792794e-01	4.174979e-03	0.0	9.847480e-01	3.098958e-03	0.0	9.900212e-01	2.045064e-03	0.0	9.951029e-01	1.009280e-03	0.0	1.000000e+00	0.000000e+00	0.0	9.950057e-01	2.363795e-04	0.0	9.898217e-01	4.390131e-04	0.0	9.844428e-01	5.873941e-04	0.0	9.788648e-01	6.883228e-04	0.0	9.730834e-01	7.632743e-04	0.0	9.670938e-01	7.773285e-04	0.0	9.608916e-01	7.680099e-04	0.0	9.544726e-01	6.923174e-04	0.0	9.478322e-01	6.002014e-04	0.0	9.409675e-01	4.132130e-04	0.0	9.338727e-01	2.199565e-04	0.0	9.265475e-01	-8.141408e-05	0.0	9.189855e-01	-4.155066e-04	0.0	9.111870e-01	-8.392421e-04	0.0	9.031522e-01	-1.407720e-03	0.0	8.948708e-01	-1.993638e-03	0.0	8.863700e-01	-2.916744e-03	0.0	8.776228e-01	-3.907818e-03	0.0	8.686561e-01	-5.151616e-03	0.0	8.594819e-01	-6.739171e-03	0.0	8.500610e-01	-8.392757e-03	0.0	8.405060e-01	-1.066115e-02	0.0	8.307030e-01	-1.298837e-02	0.0	8.207007e-01	-1.556336e-02	0.0	8.104715e-01	-1.827011e-02	0.0	7.999844e-01	-2.097808e-02	0.0	7.892379e-01	-2.366977e-02	0.0	7.782428e-01	-2.636713e-02	0.0	7.669224e-01	-2.871688e-02	0.0	7.553723e-01	-3.111431e-02	0.0	7.435444e-01	-3.327741e-02	0.0	7.314741e-01	-3.535793e-02	0.0	7.191848e-01	-3.743654e-02	0.0	7.066646e-01	-3.939449e-02	0.0	6.939471e-01	-4.138332e-02	0.0	6.810401e-01	-4.339527e-02	0.0	6.679539e-01	-4.543185e-02	0.0	6.547013e-01	-4.750754e-02	0.0	6.413060e-01	-4.970133e-02	0.0	6.277649e-01	-5.191901e-02	0.0	6.141022e-01	-5.423117e-02	0.0	6.003269e-01	-5.661437e-02	0.0	5.864452e-01	-5.902533e-02	0.0	5.724908e-01	-6.157527e-02	0.0	5.584560e-01	-6.413992e-02	0.0	5.443651e-01	-6.677163e-02	0.0	5.302306e-01	-6.945722e-02	0.0	5.160576e-01	-7.214266e-02	0.0	5.018336e-01	-7.467668e-02	0.0	4.876021e-01	-7.721204e-02	0.0	4.733337e-01	-7.946832e-02	0.0	4.590506e-01	-8.148796e-02	0.0	4.447994e-01	-8.345217e-02	0.0	4.305099e-01	-8.458878e-02	0.0	4.162875e-01	-8.572004e-02	0.0	4.021208e-01	-8.623384e-02	0.0	3.880315e-01	-8.631385e-02	0.0	3.740553e-01	-8.627635e-02	0.0	3.602284e-01	-8.536131e-02	0.0	3.465369e-01	-8.445522e-02	0.0	3.330529e-01	-8.296460e-02	0.0	3.197615e-01	-8.115286e-02	0.0	3.066551e-01	-7.926795e-02	0.0	2.938361e-01	-7.675597e-02	0.0	2.812042e-01	-7.428066e-02	0.0	2.687912e-01	-7.173178e-02	0.0	2.565983e-01	-6.914598e-02	0.0	2.446145e-01	-6.661523e-02	0.0	2.327647e-01	-6.456700e-02	0.0	2.211408e-01	-6.255778e-02	0.0	2.096849e-01	-6.109566e-02	0.0	1.983959e-01	-6.022987e-02	0.0	1.873499e-01	-5.938272e-02	0.0	1.765204e-01	-5.933872e-02	0.0	1.659391e-01	-5.934217e-02	0.0	1.556101e-01	-5.931646e-02	0.0	1.455349e-01	-5.925320e-02	0.0	1.357145e-01	-5.919154e-02	0.0	1.262086e-01	-5.815823e-02	0.0	1.169606e-01	-5.708122e-02	0.0	1.081059e-01	-5.534871e-02	0.0	9.966989e-02	-5.283307e-02	0.0	9.147491e-02	-5.038931e-02	0.0	8.385763e-02	-4.709819e-02	0.0	7.649097e-02	-4.384022e-02	0.0	6.943258e-02	-4.050459e-02	0.0	6.271696e-02	-3.701233e-02	0.0	5.621233e-02	-3.362979e-02	0.0	4.989935e-02	-3.038637e-02	0.0	4.379045e-02	-2.724948e-02	0.0	3.783675e-02	-2.430747e-02	0.0	3.206791e-02	-2.149145e-02	0.0	2.650581e-02	-1.874721e-02	0.0	2.115120e-02	-1.606448e-02	0.0	1.608929e-02	-1.327031e-02	0.0	1.132178e-02	-1.038136e-02	0.0	6.839600e-03	-7.405104e-03	0.0	2.903830e-03	-4.025060e-03	0.0	
CELLS 198	594
2	10	11	2	11	12	2	12	13	2	13	14	2	14	15	2	15	16	2	16	17	2	17	18	2	18	19	2	19	20	2	20	21	2	21	22	2	22	23	2	23	24	2	24	25	2	25	26	2	26	27	2	27	28	2	28	29	2	29	30	2	30	31	2	31	32	2	32	33	2	33	34	2	34	35	2	35	36	2	36	37	2	37	38	2	38	39	2	39	40	2	40	41	2	41	42	2	42	43	2	43	44	2	44	45	2	45	46	2	46	47	2	47	48	2	48	49	2	49	50	2	50	51	2	51	52	2	52	53	2	53	54	2	54	55	2	55	56	2	56	57	2	57	58	2	58	59	2	59	60	2	60	61	2	61	62	2	62	63	2	63	64	2	64	65	2	65	66	2	66	67	2	67	68	2	68	69	2	69	70	2	70	71	2	71	72	2	72	73	2	73	74	2	74	75	2	75	76	2	76	77	2	77	78	2	78	79	2	79	80	2	80	81	2	0	1	2	1	2	2	2	3	2	3	4	2	4	5	2	5	6	2	6	7	2	7	8	2	8	9	2	9	10	2	146	147	2	147	148	2	148	149	2	149	150	2	150	151	2	151	152	2	152	153	2	153	154	2	154	155	2	155	156	2	156	157	2	157	158	2	158	159	2	159	160	2	160	161	2	161	162	2	162	163	2	163	164	2	164	165	2	165	166	2	166	167	2	167	168	2	168	169	2	169	170	2	170	171	2	171	172	2	172	173	2	173	174	2	174	175	2	175	176	2	176	177	2	177	178	2	178	179	2	179	180	2	180	181	2	181	182	2	182	183	2	183	184	2	184	185	2	185	186	2	186	187	2	187	188	2	188	189	2	189	190	2	190	191	2	191	192	2	192	193	2	193	194	2	194	195	2	195	196	2	196	197	2	197	0	2	81	82	2	82	83	2	83	84	2	84	85	2	85	86	2	86	87	2	87	88	2	88	89	2	89	90	2	90	91	2	91	92	2	92	93	2	93	94	2	94	95	2	95	96	2	96	97	2	97	98	2	98	99	2	99	100	2	100	101	2	101	102	2	102	103	2	103	104	2	104	105	2	105	106	2	106	107	2	107	108	2	108	109	2	109	110	2	110	111	2	111	112	2	112	113	2	113	114	2	114	115	2	115	116	2	116	117	2	117	118	2	118	119	2	119	120	2	120	121	2	121	122	2	122	123	2	123	124	2	124	125	2	125	126	2	126	127	2	127	128	2	128	129	2	129	130	2	130	131	2	131	132	2	132	133	2	133	134	2	134	135	2	135	136	2	136	137	2	137	138	2	138	139	2	139	140	2	140	141	2	141	142	2	142	143	2	143	144	2	144	145	2	145	146	
CELL_TYPES 198
3	3	3	3	3	3	3	3	3	3	3	3	3	3	3	3	3	3	3	3	3	3	3	3	3	3	3	3	3	3	3	3	3	3	3	3	3	3	3	3	3	3	3	3	3	3	3	3	3	3	3	3	3	3	3	3	3	3	3	3	3	3	3	3	3	3	3	3	3	3	3	3	3	3	3	3	3	3	3	3	3	3	3	3	3	3	3	3	3	3	3	3	3	3	3	3	3	3	3	3	3	3	3	3	3	3	3	3	3	3	3	3	3	3	3	3	3	3	3	3	3	3	3	3	3	3	3	3	3	3	3	3	3	3	3	3	3	3	3	3	3	3	3	3	3	3	3	3	3	3	3	3	3	3	3	3	3	3	3	3	3	3	3	3	3	3	3	3	3	3	3	3	3	3	3	3	3	3	3	3	3	3	3	3	3	3	3	3	3	3	3	3	3	3	3	3	3	3	
POINT_DATA 198

SCALARS Density double 1
LOOKUP_TABLE default
1.516222e+00	1.160583e+00	1.163075e+00	1.066839e+00	1.001227e+00	9.369535e-01	8.987239e-01	8.506110e-01	8.056444e-01	7.449826e-01	6.883672e-01	6.026104e-01	5.418200e-01	4.983380e-01	5.600842e-01	9.116671e-01	1.107608e+00	1.155284e+00	1.151504e+00	1.155720e+00	1.147735e+00	1.140784e+00	1.124339e+00	1.101588e+00	1.078370e+00	1.048156e+00	1.011283e+00	9.811655e-01	9.397149e-01	8.994254e-01	8.804085e-01	8.461311e-01	8.226464e-01	8.131287e-01	7.930387e-01	7.871717e-01	7.758743e-01	7.663375e-01	7.622839e-01	7.531840e-01	7.506657e-01	7.345230e-01	7.158467e-01	7.043101e-01	7.298490e-01	8.803946e-01	1.024926e+00	1.057288e+00	1.083288e+00	1.099853e+00	1.114364e+00	1.130635e+00	1.141397e+00	1.149686e+00	1.158015e+00	1.160040e+00	1.164917e+00	1.165420e+00	1.162457e+00	1.162642e+00	1.155135e+00	1.149303e+00	1.140044e+00	1.121480e+00	1.105898e+00	1.084676e+00	1.051610e+00	1.023745e+00	9.938281e-01	9.584895e-01	9.484311e-01	9.384976e-01	9.670769e-01	1.020289e+00	1.058123e+00	1.103160e+00	1.132064e+00	1.158276e+00	1.180802e+00	1.192269e+00	1.202390e+00	1.210959e+00	1.214380e+00	1.220538e+00	1.224023e+00	1.226525e+00	1.230060e+00	1.233148e+00	1.236248e+00	1.240081e+00	1.243965e+00	1.248147e+00	1.252410e+00	1.256502e+00	1.261271e+00	1.265834e+00	1.269742e+00	1.279061e+00	1.262022e+00	1.324383e+00	1.414363e+00	1.398823e+00	1.393922e+00	1.401750e+00	1.403165e+00	1.405233e+00	1.407127e+00	1.409885e+00	1.411412e+00	1.413731e+00	1.416326e+00	1.417711e+00	1.422942e+00	1.423059e+00	1.429584e+00	1.432105e+00	1.430742e+00	1.436036e+00	1.428929e+00	1.432078e+00	1.425821e+00	1.409464e+00	1.398555e+00	1.378407e+00	1.359507e+00	1.342384e+00	1.316463e+00	1.303215e+00	1.293492e+00	1.282831e+00	1.284519e+00	1.281061e+00	1.281030e+00	1.284109e+00	1.284143e+00	1.284179e+00	1.285416e+00	1.283501e+00	1.280277e+00	1.277004e+00	1.270916e+00	1.266810e+00	1.259579e+00	1.249736e+00	1.241018e+00	1.226675e+00	1.206395e+00	1.200867e+00	1.189112e+00	1.086587e+00	8.832848e-01	7.748384e-01	7.827684e-01	8.115636e-01	8.353452e-01	8.774792e-01	8.958778e-01	9.421738e-01	9.879725e-01	1.020530e+00	1.070379e+00	1.096381e+00	1.140410e+00	1.196211e+00	1.229457e+00	1.265257e+00	1.306895e+00	1.329422e+00	1.348069e+00	1.373295e+00	1.367356e+00	1.373753e+00	1.366852e+00	1.330248e+00	1.302639e+00	1.270434e+00	1.192944e+00	1.146856e+00	1.116327e+00	1.085154e+00	1.136021e+00	1.168857e+00	1.222213e+00	1.301976e+00	1.338329e+00	1.384511e+00	1.428293e+00	1.455200e+00	1.481154e+00	1.501283e+00	1.515842e+00	1.530994e+00	1.544450e+00	1.561124e+00	1.582185e+00	1.611267e+00	1.621002e+00	1.706904e+00	
VECTORS Momentum double
2.082453e+01	2.211927e+02	0.0	1.673644e+02	2.001751e+02	0.0	2.007950e+02	1.939929e+02	0.0	2.367270e+02	1.714080e+02	0.0	2.625389e+02	1.550576e+02	0.0	2.755826e+02	1.318875e+02	0.0	2.837998e+02	1.157926e+02	0.0	2.878688e+02	9.692177e+01	0.0	2.901300e+02	8.102337e+01	0.0	2.863671e+02	6.080572e+01	0.0	2.811326e+02	4.269095e+01	0.0	2.624109e+02	1.845932e+01	0.0	2.510106e+02	1.233037e+00	0.0	2.279255e+02	-1.467863e+01	0.0	2.105532e+02	-2.160860e+01	0.0	1.743410e+02	-1.788062e+01	0.0	1.492415e+02	-1.044245e+01	0.0	1.315505e+02	2.275855e+00	0.0	1.179775e+02	9.719383e+00	0.0	1.205478e+02	1.951951e+01	0.0	1.285630e+02	2.649833e+01	0.0	1.386946e+02	3.467625e+01	0.0	1.521731e+02	4.145336e+01	0.0	1.678394e+02	4.574668e+01	0.0	1.844490e+02	5.038232e+01	0.0	2.011820e+02	5.322727e+01	0.0	2.155928e+02	5.087973e+01	0.0	2.277680e+02	5.013268e+01	0.0	2.381487e+02	4.549829e+01	0.0	2.442631e+02	3.706557e+01	0.0	2.501496e+02	3.429621e+01	0.0	2.545780e+02	2.738222e+01	0.0	2.562476e+02	2.158580e+01	0.0	2.587751e+02	1.905531e+01	0.0	2.578244e+02	1.365214e+01	0.0	2.590214e+02	1.163938e+01	0.0	2.587953e+02	8.446714e+00	0.0	2.586713e+02	5.436250e+00	0.0	2.596216e+02	3.543024e+00	0.0	2.586882e+02	1.904926e-01	0.0	2.602240e+02	-1.294886e+00	0.0	2.591122e+02	-5.059860e+00	0.0	2.580929e+02	-8.891954e+00	0.0	2.571551e+02	-1.152774e+01	0.0	2.604699e+02	-1.658505e+01	0.0	2.564323e+02	-1.773584e+01	0.0	2.502357e+02	-1.928706e+01	0.0	2.415239e+02	-2.204453e+01	0.0	2.348757e+02	-2.156575e+01	0.0	2.287201e+02	-2.152761e+01	0.0	2.221249e+02	-2.125790e+01	0.0	2.176793e+02	-1.906504e+01	0.0	2.134630e+02	-1.712949e+01	0.0	2.093443e+02	-1.504989e+01	0.0	2.077142e+02	-1.167474e+01	0.0	2.061940e+02	-9.953164e+00	0.0	2.047448e+02	-6.517317e+00	0.0	2.066728e+02	-3.494919e+00	0.0	2.084894e+02	-1.626707e+00	0.0	2.112458e+02	1.893193e+00	0.0	2.136990e+02	3.533162e+00	0.0	2.159426e+02	6.893537e+00	0.0	2.215645e+02	1.045602e+01	0.0	2.274277e+02	1.109614e+01	0.0	2.334947e+02	1.247242e+01	0.0	2.417578e+02	1.364352e+01	0.0	2.486689e+02	1.013729e+01	0.0	2.553700e+02	6.463534e+00	0.0	2.620061e+02	1.585991e+00	0.0	2.641836e+02	-8.706786e+00	0.0	2.675081e+02	-1.545741e+01	0.0	2.657046e+02	-2.899366e+01	0.0	2.579013e+02	-4.079903e+01	0.0	2.505735e+02	-4.785859e+01	0.0	2.386439e+02	-5.539994e+01	0.0	2.281302e+02	-5.581307e+01	0.0	2.170941e+02	-5.598221e+01	0.0	2.065751e+02	-5.370989e+01	0.0	1.991515e+02	-4.879519e+01	0.0	1.931671e+02	-4.527207e+01	0.0	1.880394e+02	-4.153493e+01	0.0	1.857223e+02	-3.791498e+01	0.0	1.833281e+02	-3.632775e+01	0.0	1.810376e+02	-3.406762e+01	0.0	1.791561e+02	-3.253074e+01	0.0	1.768786e+02	-3.179195e+01	0.0	1.743603e+02	-3.094384e+01	0.0	1.724058e+02	-3.066884e+01	0.0	1.697200e+02	-3.057553e+01	0.0	1.669304e+02	-3.039404e+01	0.0	1.642861e+02	-3.027902e+01	0.0	1.614066e+02	-3.010935e+01	0.0	1.582429e+02	-2.982726e+01	0.0	1.550626e+02	-2.957568e+01	0.0	1.518455e+02	-2.928755e+01	0.0	1.480708e+02	-2.898102e+01	0.0	1.430907e+02	-2.839695e+01	0.0	1.388448e+02	-2.768427e+01	0.0	1.283099e+02	-2.875373e+01	0.0	2.013867e+02	2.799306e+00	0.0	2.729426e+02	-1.317993e+01	0.0	2.675628e+02	-9.420806e+00	0.0	2.603752e+02	-5.580595e+00	0.0	2.616469e+02	-4.110411e+00	0.0	2.602828e+02	-1.986470e+00	0.0	2.591191e+02	-8.165496e-02	0.0	2.583603e+02	1.743418e+00	0.0	2.573588e+02	3.307172e+00	0.0	2.562543e+02	5.307564e+00	0.0	2.553338e+02	6.956776e+00	0.0	2.541637e+02	8.722056e+00	0.0	2.530324e+02	1.083650e+01	0.0	2.516995e+02	1.240189e+01	0.0	2.500794e+02	1.570184e+01	0.0	2.486539e+02	1.751231e+01	0.0	2.462683e+02	2.215222e+01	0.0	2.453391e+02	2.718112e+01	0.0	2.448591e+02	3.081871e+01	0.0	2.438092e+02	3.822086e+01	0.0	2.450855e+02	4.255783e+01	0.0	2.448969e+02	5.048981e+01	0.0	2.486689e+02	5.897361e+01	0.0	2.548507e+02	6.299313e+01	0.0	2.600830e+02	6.790366e+01	0.0	2.674616e+02	6.978021e+01	0.0	2.741166e+02	6.953351e+01	0.0	2.800487e+02	6.950736e+01	0.0	2.874114e+02	6.501679e+01	0.0	2.906606e+02	6.039808e+01	0.0	2.928322e+02	5.724778e+01	0.0	2.953585e+02	5.242522e+01	0.0	2.950491e+02	5.042901e+01	0.0	2.957871e+02	4.813381e+01	0.0	2.957107e+02	4.622593e+01	0.0	2.950949e+02	4.610341e+01	0.0	2.951408e+02	4.598569e+01	0.0	2.950984e+02	4.607614e+01	0.0	2.949396e+02	4.726165e+01	0.0	2.954278e+02	4.837175e+01	0.0	2.960419e+02	4.932017e+01	0.0	2.966607e+02	5.076916e+01	0.0	2.979440e+02	5.158473e+01	0.0	2.988652e+02	5.326129e+01	0.0	3.003136e+02	5.489725e+01	0.0	3.024020e+02	5.582404e+01	0.0	3.046265e+02	5.737113e+01	0.0	3.072573e+02	5.837253e+01	0.0	3.113205e+02	5.735116e+01	0.0	3.130128e+02	5.487408e+01	0.0	3.125643e+02	5.137173e+01	0.0	3.094985e+02	4.825623e+01	0.0	3.003731e+02	4.218856e+01	0.0	3.095009e+02	3.332168e+01	0.0	3.144073e+02	2.506430e+01	0.0	3.169893e+02	1.811262e+01	0.0	3.244032e+02	6.540597e+00	0.0	3.241645e+02	6.683632e-01	0.0	3.297568e+02	-1.163346e+01	0.0	3.315741e+02	-2.197444e+01	0.0	3.308837e+02	-2.920178e+01	0.0	3.318187e+02	-4.124155e+01	0.0	3.282268e+02	-4.579989e+01	0.0	3.261463e+02	-5.551075e+01	0.0	3.210205e+02	-6.309809e+01	0.0	3.135040e+02	-6.274548e+01	0.0	3.075582e+02	-6.425141e+01	0.0	3.001618e+02	-6.359847e+01	0.0	2.936937e+02	-5.641913e+01	0.0	2.895230e+02	-4.992247e+01	0.0	2.851637e+02	-4.278539e+01	0.0	2.839548e+02	-2.867918e+01	0.0	2.871483e+02	-2.223039e+01	0.0	2.889419e+02	-1.163434e+01	0.0	2.947578e+02	-2.231883e-01	0.0	3.049487e+02	-3.400921e-01	0.0	3.113743e+02	-1.306232e+00	0.0	3.168819e+02	-1.384031e+00	0.0	3.266741e+02	-1.862528e+01	0.0	3.278021e+02	-3.692442e+01	0.0	3.237692e+02	-5.072708e+01	0.0	3.238041e+02	-8.011109e+01	0.0	3.120180e+02	-9.299167e+01	0.0	3.012929e+02	-1.101957e+02	0.0	2.849203e+02	-1.252655e+02	0.0	2.700195e+02	-1.233334e+02	0.0	2.561336e+02	-1.271368e+02	0.0	2.400608e+02	-1.249730e+02	0.0	2.260738e+02	-1.168241e+02	0.0	2.152500e+02	-1.105974e+02	0.0	2.047019e+02	-1.031674e+02	0.0	1.953573e+02	-9.591808e+01	0.0	1.850377e+02	-9.079318e+01	0.0	1.734037e+02	-8.613433e+01	0.0	1.576931e+02	-8.277145e+01	0.0	1.341819e+02	-7.723746e+01	0.0	1.007252e+02	-6.423651e+01	0.0	5.749970e+01	-4.122446e+01	0.0	-2.660058e+01	2.396636e+01	0.0	
SCALARS Energy double 1
LOOKUP_TABLE default
3.334593e+05	2.600646e+05	2.617995e+05	2.427936e+05	2.303917e+05	2.174198e+05	2.098316e+05	1.999591e+05	1.908025e+05	1.779917e+05	1.660602e+05	1.470873e+05	1.341121e+05	1.230240e+05	1.328869e+05	2.025175e+05	2.430832e+05	2.526759e+05	2.514543e+05	2.524734e+05	2.510430e+05	2.499504e+05	2.469853e+05	2.428154e+05	2.386992e+05	2.332061e+05	2.262390e+05	2.206954e+05	2.127236e+05	2.047447e+05	2.012702e+05	1.945612e+05	1.898831e+05	1.881642e+05	1.839868e+05	1.829070e+05	1.806013e+05	1.786670e+05	1.779435e+05	1.760286e+05	1.756770e+05	1.723519e+05	1.685480e+05	1.661771e+05	1.716088e+05	2.016440e+05	2.310457e+05	2.372316e+05	2.422587e+05	2.453696e+05	2.480446e+05	2.512231e+05	2.532638e+05	2.547953e+05	2.564671e+05	2.568147e+05	2.577705e+05	2.579710e+05	2.574333e+05	2.576148e+05	2.561523e+05	2.550405e+05	2.533957e+05	2.498090e+05	2.468884e+05	2.429455e+05	2.364668e+05	2.311159e+05	2.253901e+05	2.182720e+05	2.164920e+05	2.143975e+05	2.197920e+05	2.303723e+05	2.375684e+05	2.463747e+05	2.518429e+05	2.568033e+05	2.611558e+05	2.632726e+05	2.651568e+05	2.668478e+05	2.674599e+05	2.686583e+05	2.693118e+05	2.697464e+05	2.703934e+05	2.709735e+05	2.715300e+05	2.722411e+05	2.729716e+05	2.737593e+05	2.745561e+05	2.753188e+05	2.762285e+05	2.770785e+05	2.777512e+05	2.796165e+05	2.756399e+05	2.915820e+05	3.142615e+05	3.106698e+05	3.092378e+05	3.109628e+05	3.111888e+05	3.115654e+05	3.119274e+05	3.124605e+05	3.127287e+05	3.131753e+05	3.136686e+05	3.139088e+05	3.149556e+05	3.149083e+05	3.162295e+05	3.166658e+05	3.163551e+05	3.174783e+05	3.159671e+05	3.167338e+05	3.154686e+05	3.122771e+05	3.103310e+05	3.064105e+05	3.028519e+05	2.996210e+05	2.945237e+05	2.921344e+05	2.902409e+05	2.881097e+05	2.885690e+05	2.878030e+05	2.878199e+05	2.884386e+05	2.884039e+05	2.884131e+05	2.886700e+05	2.882713e+05	2.876413e+05	2.870080e+05	2.857937e+05	2.850317e+05	2.836051e+05	2.816724e+05	2.800132e+05	2.772077e+05	2.732022e+05	2.723417e+05	2.700038e+05	2.488292e+05	2.074186e+05	1.849946e+05	1.874362e+05	1.935073e+05	1.983935e+05	2.074306e+05	2.110371e+05	2.208284e+05	2.302191e+05	2.367579e+05	2.470448e+05	2.520725e+05	2.610208e+05	2.721936e+05	2.784983e+05	2.855304e+05	2.937046e+05	2.979102e+05	3.014899e+05	3.064630e+05	3.050355e+05	3.065386e+05	3.051561e+05	2.978087e+05	2.926893e+05	2.864094e+05	2.707274e+05	2.620440e+05	2.560127e+05	2.494659e+05	2.603501e+05	2.664346e+05	2.770794e+05	2.929762e+05	2.996370e+05	3.086827e+05	3.170665e+05	3.219326e+05	3.268523e+05	3.305691e+05	3.331899e+05	3.359762e+05	3.383977e+05	3.414486e+05	3.452778e+05	3.506856e+05	3.519724e+05	3.702674e+05	
SCALARS Pressure double 1
LOOKUP_TABLE default
1.268728e+05	9.229366e+04	9.131536e+04	8.110371e+04	7.358556e+04	6.704373e+04	6.302516e+04	5.829044e+04	5.379490e+04	4.818851e+04	4.293136e+04	3.586808e+04	3.038698e+04	2.827378e+04	3.715731e+04	7.426891e+04	9.319179e+04	9.807359e+04	9.814783e+04	9.840867e+04	9.741467e+04	9.639690e+04	9.436929e+04	9.163177e+04	8.869912e+04	8.501890e+04	8.079130e+04	7.719103e+04	7.257823e+04	6.832512e+04	6.602593e+04	6.232814e+04	5.987617e+04	5.870552e+04	5.678348e+04	5.608201e+04	5.495774e+04	5.399660e+04	5.348950e+04	5.264163e+04	5.222863e+04	5.065275e+04	4.878643e+04	4.765478e+04	4.997675e+04	6.564794e+04	8.012667e+04	8.376611e+04	8.663261e+04	8.855086e+04	9.028154e+04	9.204305e+04	9.326978e+04	9.425488e+04	9.511172e+04	9.537872e+04	9.590375e+04	9.585612e+04	9.549425e+04	9.536886e+04	9.455194e+04	9.389323e+04	9.272702e+04	9.067753e+04	8.886738e+04	8.636705e+04	8.280689e+04	7.969794e+04	7.634082e+04	7.272987e+04	7.145611e+04	7.053476e+04	7.381707e+04	7.939224e+04	8.368275e+04	8.854980e+04	9.185715e+04	9.485481e+04	9.734135e+04	9.870597e+04	9.989436e+04	1.008049e+05	1.012314e+05	1.019026e+05	1.023073e+05	1.026322e+05	1.030586e+05	1.034161e+05	1.038007e+05	1.042533e+05	1.047019e+05	1.051839e+05	1.056815e+05	1.061611e+05	1.066992e+05	1.072346e+05	1.077484e+05	1.087124e+05	1.075159e+05	1.105070e+05	1.151456e+05	1.140195e+05	1.139634e+05	1.146150e+05	1.148186e+05	1.150701e+05	1.152831e+05	1.155871e+05	1.157825e+05	1.160401e+05	1.163346e+05	1.165147e+05	1.170562e+05	1.171392e+05	1.177990e+05	1.181280e+05	1.180248e+05	1.185088e+05	1.178625e+05	1.180518e+05	1.174172e+05	1.156429e+05	1.142769e+05	1.120805e+05	1.099007e+05	1.079331e+05	1.051606e+05	1.035279e+05	1.024695e+05	1.013639e+05	1.014169e+05	1.011333e+05	1.011069e+05	1.014231e+05	1.014680e+05	1.014696e+05	1.015883e+05	1.014055e+05	1.010568e+05	1.006962e+05	1.000624e+05	9.957776e+04	9.880902e+04	9.775348e+04	9.676565e+04	9.521656e+04	9.306487e+04	9.224714e+04	9.101606e+04	8.106365e+04	6.075083e+04	5.024995e+04	5.021591e+04	5.288723e+04	5.522120e+04	5.897618e+04	6.095560e+04	6.521995e+04	6.973394e+04	7.307973e+04	7.792726e+04	8.079391e+04	8.521299e+04	9.098171e+04	9.477056e+04	9.860739e+04	1.030749e+05	1.057087e+05	1.077901e+05	1.104758e+05	1.101003e+05	1.105393e+05	1.098266e+05	1.060609e+05	1.027980e+05	9.930040e+04	9.145596e+04	8.614694e+04	8.290942e+04	7.999198e+04	8.455118e+04	8.843599e+04	9.399009e+04	1.023099e+05	1.066859e+05	1.116612e+05	1.165700e+05	1.198729e+05	1.228330e+05	1.252274e+05	1.270267e+05	1.288408e+05	1.305046e+05	1.325159e+05	1.350811e+05	1.385027e+05	1.401713e+05	1.479567e+05	
SCALARS Temperature double 1
LOOKUP_TABLE default
2.914984e+02	2.770296e+02	2.735058e+02	2.648331e+02	2.560297e+02	2.492703e+02	2.442970e+02	2.387243e+02	2.326098e+02	2.253345e+02	2.172625e+02	2.073490e+02	1.953723e+02	1.976470e+02	2.311114e+02	2.837926e+02	2.931041e+02	2.957289e+02	2.969241e+02	2.966272e+02	2.956740e+02	2.943676e+02	2.923908e+02	2.897726e+02	2.865376e+02	2.825661e+02	2.783057e+02	2.740658e+02	2.690547e+02	2.646340e+02	2.612526e+02	2.566119e+02	2.535544e+02	2.515069e+02	2.494353e+02	2.481901e+02	2.467561e+02	2.454577e+02	2.444456e+02	2.434774e+02	2.423775e+02	2.402304e+02	2.374157e+02	2.357072e+02	2.385423e+02	2.597611e+02	2.723422e+02	2.759976e+02	2.785914e+02	2.804714e+02	2.822294e+02	2.835952e+02	2.846652e+02	2.855978e+02	2.861213e+02	2.864238e+02	2.867946e+02	2.865283e+02	2.861742e+02	2.857530e+02	2.851466e+02	2.845969e+02	2.833446e+02	2.816687e+02	2.799354e+02	2.773822e+02	2.743103e+02	2.711975e+02	2.675937e+02	2.643357e+02	2.624605e+02	2.618185e+02	2.659048e+02	2.710723e+02	2.755053e+02	2.796272e+02	2.826651e+02	2.852841e+02	2.871775e+02	2.884028e+02	2.894183e+02	2.899898e+02	2.903964e+02	2.908470e+02	2.911706e+02	2.914994e+02	2.918691e+02	2.921481e+02	2.924994e+02	2.928667e+02	2.932087e+02	2.935716e+02	2.939564e+02	2.943287e+02	2.947021e+02	2.951131e+02	2.956145e+02	2.960862e+02	2.967810e+02	2.906742e+02	2.836070e+02	2.839531e+02	2.848113e+02	2.848403e+02	2.850585e+02	2.852622e+02	2.854057e+02	2.855985e+02	2.857718e+02	2.859378e+02	2.861384e+02	2.863015e+02	2.865745e+02	2.867541e+02	2.870531e+02	2.873481e+02	2.873706e+02	2.874855e+02	2.873394e+02	2.871682e+02	2.868780e+02	2.858217e+02	2.846488e+02	2.832584e+02	2.816108e+02	2.800968e+02	2.782755e+02	2.767397e+02	2.759694e+02	2.752607e+02	2.750428e+02	2.750137e+02	2.749488e+02	2.751472e+02	2.752619e+02	2.752584e+02	2.753153e+02	2.752299e+02	2.749743e+02	2.746955e+02	2.742738e+02	2.738301e+02	2.732760e+02	2.724860e+02	2.716274e+02	2.704041e+02	2.687366e+02	2.676014e+02	2.666402e+02	2.598915e+02	2.395972e+02	2.259201e+02	2.234799e+02	2.270171e+02	2.302874e+02	2.341371e+02	2.370256e+02	2.411458e+02	2.458837e+02	2.494604e+02	2.536193e+02	2.567128e+02	2.603006e+02	2.649577e+02	2.685286e+02	2.714946e+02	2.747530e+02	2.769990e+02	2.785462e+02	2.802423e+02	2.805027e+02	2.803098e+02	2.799087e+02	2.777493e+02	2.749102e+02	2.722884e+02	2.670683e+02	2.616744e+02	2.587276e+02	2.567943e+02	2.592768e+02	2.635712e+02	2.678956e+02	2.737441e+02	2.776991e+02	2.809548e+02	2.843149e+02	2.869649e+02	2.888984e+02	2.905811e+02	2.919251e+02	2.931638e+02	2.943623e+02	2.957066e+02	2.974182e+02	2.994478e+02	3.012355e+02	3.019645e+02	
SCALARS Mach double 1
LOOKUP_TABLE default
4.281120e-01	6.737902e-01	7.240584e-01	8.397439e-01	9.493880e-01	1.030225e+00	1.088466e+00	1.152879e+00	1.222907e+00	1.305841e+00	1.397978e+00	1.512228e+00	1.653340e+00	1.626199e+00	1.240007e+00	5.692277e-01	3.935538e-01	3.303492e-01	2.975986e-01	3.060360e-01	3.317823e-01	3.643585e-01	4.092171e-01	4.627624e-01	5.225096e-01	5.891773e-01	6.549693e-01	7.162213e-01	7.846350e-01	8.422955e-01	8.850754e-01	9.423098e-01	9.792591e-01	1.003723e+00	1.028276e+00	1.042949e+00	1.059775e+00	1.074947e+00	1.086737e+00	1.097988e+00	1.110737e+00	1.135540e+00	1.167912e+00	1.187495e+00	1.154972e+00	9.036406e-01	7.401787e-01	6.887579e-01	6.507053e-01	6.221454e-01	5.945660e-01	5.724740e-01	5.547067e-01	5.388587e-01	5.298012e-01	5.245118e-01	5.179687e-01	5.226731e-01	5.288787e-01	5.361857e-01	5.465706e-01	5.558546e-01	5.765742e-01	6.034622e-01	6.303810e-01	6.686257e-01	7.127833e-01	7.558322e-01	8.039357e-01	8.461114e-01	8.699098e-01	8.779853e-01	8.259391e-01	7.575317e-01	6.958219e-01	6.350809e-01	5.875865e-01	5.442303e-01	5.111422e-01	4.887894e-01	4.696085e-01	4.585229e-01	4.504986e-01	4.414617e-01	4.348739e-01	4.280906e-01	4.203511e-01	4.144299e-01	4.068663e-01	3.988261e-01	3.912094e-01	3.829813e-01	3.740834e-01	3.652902e-01	3.562745e-01	3.461088e-01	3.333284e-01	3.208827e-01	3.016938e-01	4.449456e-01	5.722806e-01	5.665781e-01	5.522472e-01	5.517586e-01	5.480669e-01	5.446030e-01	5.421532e-01	5.388458e-01	5.358609e-01	5.329887e-01	5.295037e-01	5.266544e-01	5.218601e-01	5.186873e-01	5.133693e-01	5.080781e-01	5.076737e-01	5.056001e-01	5.082355e-01	5.113105e-01	5.164878e-01	5.349991e-01	5.549836e-01	5.779807e-01	6.043744e-01	6.279094e-01	6.554196e-01	6.780167e-01	6.891637e-01	6.993148e-01	7.024183e-01	7.028309e-01	7.037536e-01	7.009324e-01	6.992991e-01	6.993478e-01	6.985373e-01	6.997546e-01	7.033919e-01	7.073451e-01	7.132971e-01	7.195272e-01	7.272598e-01	7.381986e-01	7.499765e-01	7.665689e-01	7.888598e-01	8.038347e-01	8.163961e-01	9.020238e-01	1.142836e+00	1.299169e+00	1.326976e+00	1.286671e+00	1.249403e+00	1.205460e+00	1.172387e+00	1.124978e+00	1.069975e+00	1.027980e+00	9.784806e-01	9.410818e-01	8.969456e-01	8.381446e-01	7.916154e-01	7.517875e-01	7.065300e-01	6.742372e-01	6.513818e-01	6.256750e-01	6.216615e-01	6.246364e-01	6.307883e-01	6.632196e-01	7.043018e-01	7.409193e-01	8.108145e-01	8.797940e-01	9.164059e-01	9.400882e-01	9.096324e-01	8.558530e-01	7.999677e-01	7.207300e-01	6.639608e-01	6.146513e-01	5.605704e-01	5.149418e-01	4.795071e-01	4.468137e-01	4.191690e-01	3.922172e-01	3.644870e-01	3.309312e-01	2.830399e-01	2.137292e-01	1.254428e-01	6.021492e-02	
SCALARS Pressure_Coefficient double 1
LOOKUP_TABLE default