# vtk DataFile Version 3.0
vtk output
ASCII
DATASET UNSTRUCTURED_GRID
POINTS 1841 double
1.000000e+02	0.000000e+00	0.0	9.917900e+01	1.278772e+01	0.0	9.672949e+01	2.536546e+01	0.0	9.269168e+01	3.752670e+01	0.0	8.713187e+01	4.907176e+01	0.0	8.014136e+01	5.981105e+01	0.0	7.183494e+01	6.956826e+01	0.0	6.234898e+01	7.818315e+01	0.0	5.183926e+01	8.551428e+01	0.0	4.047833e+01	9.144126e+01	0.0	2.845276e+01	9.586679e+01	0.0	1.595999e+01	9.871818e+01	0.0	3.205158e+00	9.994862e+01	0.0	-9.602303e+00	9.953791e+01	0.0	-2.225209e+01	9.749279e+01	0.0	-3.453651e+01	9.384684e+01	0.0	-4.625383e+01	8.865993e+01	0.0	-5.721167e+01	8.201723e+01	0.0	-6.723009e+01	7.402780e+01	0.0	-7.614460e+01	6.482284e+01	0.0	-8.380881e+01	5.455349e+01	0.0	-9.009689e+01	4.338837e+01	0.0	-9.490557e+01	3.151082e+01	0.0	-9.815592e+01	1.911586e+01	0.0	-9.979454e+01	6.407022e+00	0.0	-9.979454e+01	-6.407022e+00	0.0	-9.815592e+01	-1.911586e+01	0.0	-9.490557e+01	-3.151082e+01	0.0	-9.009689e+01	-4.338837e+01	0.0	-8.380881e+01	-5.455349e+01	0.0	-7.614460e+01	-6.482284e+01	0.0	-6.723009e+01	-7.402780e+01	0.0	-5.721167e+01	-8.201723e+01	0.0	-4.625383e+01	-8.865993e+01	0.0	-3.453651e+01	-9.384684e+01	0.0	-2.225209e+01	-9.749279e+01	0.0	-9.602303e+00	-9.953791e+01	0.0	3.205158e+00	-9.994862e+01	0.0	1.595999e+01	-9.871818e+01	0.0	2.845276e+01	-9.586679e+01	0.0	4.047833e+01	-9.144126e+01	0.0	5.183926e+01	-8.551428e+01	0.0	6.234898e+01	-7.818315e+01	0.0	7.183494e+01	-6.956826e+01	0.0	8.014136e+01	-5.981105e+01	0.0	8.713187e+01	-4.907176e+01	0.0	9.269168e+01	-3.752670e+01	0.0	9.672949e+01	-2.536546e+01	0.0	9.917900e+01	-1.278772e+01	0.0	0.000000e+00	0.000000e+00	0.0	1.488382e-03	4.706598e-03	0.0	4.729298e-03	8.709208e-03	0.0	8.960773e-03	1.200800e-02	0.0	1.377211e-02	1.481082e-02	0.0	1.898148e-02	1.729171e-02	0.0	2.450839e-02	1.956573e-02	0.0	3.031646e-02	2.170182e-02	0.0	3.640678e-02	2.368159e-02	0.0	4.275644e-02	2.556158e-02	0.0	4.934929e-02	2.740459e-02	0.0	5.620341e-02	2.915135e-02	0.0	6.330642e-02	3.085116e-02	0.0	7.065477e-02	3.253381e-02	0.0	7.826755e-02	3.411931e-02	0.0	8.612502e-02	3.570894e-02	0.0	9.424359e-02	3.723200e-02	0.0	1.026161e-01	3.873041e-02	0.0	1.112448e-01	4.020140e-02	0.0	1.201352e-01	4.161485e-02	0.0	1.292780e-01	4.303285e-02	0.0	1.386872e-01	4.436293e-02	0.0	1.483482e-01	4.570003e-02	0.0	1.582709e-01	4.696841e-02	0.0	1.684468e-01	4.821680e-02	0.0	1.788773e-01	4.942085e-02	0.0	1.895599e-01	5.057634e-02	0.0	2.004884e-01	5.171229e-02	0.0	2.116645e-01	5.277078e-02	0.0	2.230769e-01	5.382437e-02	0.0	2.347277e-01	5.478919e-02	0.0	2.466050e-01	5.573642e-02	0.0	2.587062e-01	5.661823e-02	0.0	2.710224e-01	5.745154e-02	0.0	2.835455e-01	5.824452e-02	0.0	2.962690e-01	5.895808e-02	0.0	3.091804e-01	5.965252e-02	0.0	3.222741e-01	6.024210e-02	0.0	3.355357e-01	6.080298e-02	0.0	3.489565e-01	6.128503e-02	0.0	3.625238e-01	6.170313e-02	0.0	3.762252e-01	6.207156e-02	0.0	3.900488e-01	6.233973e-02	0.0	4.039801e-01	6.257569e-02	0.0	4.180065e-01	6.270156e-02	0.0	4.321130e-01	6.277788e-02	0.0	4.462857e-01	6.277497e-02	0.0	4.605094e-01	6.267911e-02	0.0	4.747698e-01	6.253694e-02	0.0	4.890502e-01	6.225260e-02	0.0	5.033369e-01	6.192359e-02	0.0	5.176131e-01	6.147262e-02	0.0	5.318639e-01	6.093655e-02	0.0	5.460747e-01	6.032108e-02	0.0	5.602274e-01	5.957265e-02	0.0	5.743120e-01	5.878128e-02	0.0	5.883073e-01	5.783957e-02	0.0	6.022055e-01	5.685326e-02	0.0	6.159897e-01	5.577447e-02	0.0	6.296475e-01	5.462454e-02	0.0	6.431689e-01	5.343202e-02	0.0	6.565370e-01	5.215043e-02	0.0	6.697473e-01	5.085547e-02	0.0	6.827818e-01	4.947899e-02	0.0	6.956367e-01	4.808765e-02	0.0	7.082990e-01	4.665075e-02	0.0	7.207611e-01	4.518415e-02	0.0	7.330162e-01	4.370146e-02	0.0	7.450534e-01	4.217827e-02	0.0	7.568719e-01	4.066395e-02	0.0	7.684581e-01	3.910384e-02	0.0	7.798146e-01	3.756074e-02	0.0	7.909308e-01	3.599289e-02	0.0	8.018073e-01	3.443589e-02	0.0	8.124383e-01	3.287479e-02	0.0	8.228223e-01	3.131958e-02	0.0	8.329579e-01	2.977650e-02	0.0	8.428421e-01	2.823711e-02	0.0	8.524771e-01	2.672306e-02	0.0	8.618587e-01	2.521070e-02	0.0	8.709918e-01	2.373127e-02	0.0	8.798722e-01	2.225536e-02	0.0	8.885056e-01	2.081207e-02	0.0	8.968905e-01	1.938321e-02	0.0	9.050310e-01	1.798172e-02	0.0	9.129284e-01	1.660297e-02	0.0	9.205855e-01	1.524701e-02	0.0	9.280067e-01	1.392206e-02	0.0	9.351928e-01	1.261437e-02	0.0	9.421503e-01	1.134060e-02	0.0	9.488808e-01	1.008772e-02	0.0	9.553897e-01	8.864213e-03	0.0	9.616816e-01	7.671003e-03	0.0	9.677588e-01	6.497384e-03	0.0	9.736276e-01	5.353367e-03	0.0	9.792925e-01	4.236524e-03	0.0	9.847575e-01	3.143696e-03	0.0	9.900275e-01	2.075164e-03	0.0	9.951070e-01	1.028680e-03	0.0	1.000000e+00	0.000000e+00	0.0	9.950075e-01	2.737954e-04	0.0	9.898274e-01	5.203515e-04	0.0	9.844550e-01	7.375129e-04	0.0	9.788854e-01	9.212927e-04	0.0	9.731140e-01	1.058151e-03	0.0	9.671365e-01	1.153163e-03	0.0	9.609487e-01	1.210505e-03	0.0	9.545463e-01	1.200848e-03	0.0	9.479256e-01	1.136516e-03	0.0	9.410825e-01	1.034805e-03	0.0	9.340145e-01	8.383345e-04	0.0	9.267170e-01	6.061839e-04	0.0	9.191879e-01	2.982302e-04	0.0	9.114242e-01	-7.392817e-05	0.0	9.034227e-01	-5.025729e-04	0.0	8.951832e-01	-1.021846e-03	0.0	8.867004e-01	-1.579165e-03	0.0	8.779779e-01	-2.250055e-03	0.0	8.690092e-01	-2.957713e-03	0.0	8.597984e-01	-3.765968e-03	0.0	8.503413e-01	-4.627329e-03	0.0	8.406409e-01	-5.573679e-03	0.0	8.306967e-01	-6.589269e-03	0.0	8.205097e-01	-7.674194e-03	0.0	8.100834e-01	-8.842153e-03	0.0	7.994170e-01	-1.006444e-02	0.0	7.885182e-01	-1.138158e-02	0.0	7.773845e-01	-1.274152e-02	0.0	7.660274e-01	-1.420238e-02	0.0	7.544448e-01	-1.570790e-02	0.0	7.426473e-01	-1.729633e-02	0.0	7.306374e-01	-1.893775e-02	0.0	7.184233e-01	-2.064116e-02	0.0	7.060116e-01	-2.239879e-02	0.0	6.934090e-01	-2.419963e-02	0.0	6.806254e-01	-2.604841e-02	0.0	6.676678e-01	-2.792716e-02	0.0	6.545468e-01	-2.983763e-02	0.0	6.412715e-01	-3.176732e-02	0.0	6.278525e-01	-3.370993e-02	0.0	6.143004e-01	-3.565547e-02	0.0	6.006277e-01	-3.760373e-02	0.0	5.868439e-01	-3.952735e-02	0.0	5.729655e-01	-4.145022e-02	0.0	5.589983e-01	-4.331110e-02	0.0	5.449622e-01	-4.515076e-02	0.0	5.308656e-01	-4.692300e-02	0.0	5.167233e-01	-4.862443e-02	0.0	5.025516e-01	-5.026722e-02	0.0	4.883567e-01	-5.176653e-02	0.0	4.741638e-01	-5.321382e-02	0.0	4.599744e-01	-5.446492e-02	0.0	4.458146e-01	-5.562298e-02	0.0	4.316936e-01	-5.662135e-02	0.0	4.176275e-01	-5.744278e-02	0.0	4.036352e-01	-5.816324e-02	0.0	3.897255e-01	-5.862271e-02	0.0	3.759204e-01	-5.900269e-02	0.0	3.622302e-01	-5.915434e-02	0.0	3.486719e-01	-5.918556e-02	0.0	3.352576e-01	-5.907619e-02	0.0	3.220014e-01	-5.880108e-02	0.0	3.089127e-01	-5.846553e-02	0.0	2.960066e-01	-5.794473e-02	0.0	2.832883e-01	-5.739028e-02	0.0	2.707706e-01	-5.672156e-02	0.0	2.584597e-01	-5.599787e-02	0.0	2.463634e-01	-5.521498e-02	0.0	2.344907e-01	-5.435476e-02	0.0	2.228439e-01	-5.347453e-02	0.0	2.114352e-01	-5.249595e-02	0.0	2.002622e-01	-5.150968e-02	0.0	1.893361e-01	-5.044287e-02	0.0	1.786556e-01	-4.935147e-02	0.0	1.682262e-01	-4.821098e-02	0.0	1.580510e-01	-4.702214e-02	0.0	1.481282e-01	-4.581459e-02	0.0	1.384665e-01	-4.453292e-02	0.0	1.290565e-01	-4.325608e-02	0.0	1.199119e-01	-4.188860e-02	0.0	1.110202e-01	-4.051957e-02	0.0	1.023894e-01	-3.909167e-02	0.0	9.401537e-02	-3.762872e-02	0.0	8.589449e-02	-3.614143e-02	0.0	7.803635e-02	-3.457488e-02	0.0	7.042341e-02	-3.300777e-02	0.0	6.307601e-02	-3.133507e-02	0.0	5.597712e-02	-2.963069e-02	0.0	4.912807e-02	-2.787405e-02	0.0	4.254794e-02	-2.599415e-02	0.0	3.621496e-02	-2.406602e-02	0.0	3.014500e-02	-2.202964e-02	0.0	2.436666e-02	-1.981801e-02	0.0	1.887371e-02	-1.746610e-02	0.0	1.370090e-02	-1.491164e-02	0.0	8.923984e-03	-1.205166e-02	0.0	4.718738e-03	-8.719505e-03	0.0	1.489344e-03	-4.706710e-03	0.0	7.900513e-01	-2.138589e-02	0.0	7.981994e-01	-1.813447e-02	0.0	8.725627e+01	2.710669e+01	0.0	8.229155e+01	3.613274e+01	0.0	7.873301e+01	2.605640e+01	0.0	7.701573e+01	-1.383602e+01	0.0	7.395104e+01	-2.282733e+01	0.0	8.655942e+01	-1.621958e+01	0.0	9.132757e+01	-5.383754e+00	0.0	3.651988e+01	8.533404e+00	0.0	3.737915e+01	1.827231e+01	0.0	2.980353e+01	1.403896e+01	0.0	7.267240e+01	3.320704e+01	0.0	7.080258e+01	2.444452e+01	0.0	7.524723e+01	-3.516048e+01	0.0	7.522239e+01	-4.747894e+01	0.0	8.326942e+01	-3.951048e+01	0.0	6.040666e+01	5.182216e+01	0.0	5.468051e+01	4.088337e+01	0.0	6.626268e+01	4.134452e+01	0.0	6.877889e+01	5.945489e+01	0.0	7.282237e+01	5.088784e+01	0.0	5.899367e+01	6.424600e+01	0.0	5.120914e+01	-7.273774e+01	0.0	4.832465e+01	7.202119e+01	0.0	4.084185e+01	6.276048e+01	0.0	3.154237e+01	6.231258e+01	0.0	3.700881e+01	5.516416e+01	0.0	5.749304e+01	-6.047078e+01	0.0	4.564827e+01	-6.152002e+01	0.0	3.055734e+01	8.632096e+01	0.0	3.960679e+01	8.074409e+01	0.0	6.244675e+01	-6.809068e+01	0.0	4.232755e+01	-8.105699e+01	0.0	4.120525e-01	4.532467e+01	0.0	-3.011893e-02	5.529910e+01	0.0	-9.584100e+00	5.030726e+01	0.0	8.771812e+00	-8.533883e+01	0.0	4.532236e+00	-7.630431e+01	0.0	-3.474219e+00	-7.871445e+01	0.0	1.231300e+01	4.125971e+01	0.0	7.725191e+00	5.068485e+01	0.0	9.231541e+00	7.719509e+01	0.0	1.977866e+01	7.443564e+01	0.0	1.638957e+01	8.224617e+01	0.0	1.754192e+01	4.190838e+00	0.0	2.161870e+01	-3.837513e+00	0.0	2.622883e+01	5.445694e+00	0.0	8.577852e+00	5.395768e+00	0.0	4.843720e+00	5.807977e+00	0.0	6.380971e+00	3.233099e+00	0.0	1.925093e+00	7.618624e-01	0.0	2.457437e+00	6.510795e-01	0.0	2.116716e+00	1.188771e+00	0.0	1.024425e+00	-1.123935e-02	0.0	1.015824e+00	-8.149777e-03	0.0	1.015381e+00	-1.486656e-02	0.0	1.329407e+00	4.524166e-01	0.0	1.074295e+00	5.902595e-01	0.0	1.121847e+00	3.893199e-01	0.0	1.006024e+00	-5.494666e-03	0.0	1.006970e+00	-1.608231e-04	0.0	1.002569e+00	-2.234379e-03	0.0	9.924036e-01	1.029825e-02	0.0	9.977878e-01	5.602536e-03	0.0	9.983424e-01	1.253476e-02	0.0	2.813877e+00	2.775080e+00	0.0	1.488066e+00	3.522078e+00	0.0	1.884292e+00	2.388030e+00	0.0	9.925026e-01	5.230121e-03	0.0	9.779966e-01	1.801939e-02	0.0	9.757949e-01	1.255391e-02	0.0	9.812216e-01	1.112175e-02	0.0	9.853887e-01	2.291292e-02	0.0	9.867877e-01	3.498204e-02	0.0	9.766095e-01	2.799493e-02	0.0	9.819851e-01	6.832641e-03	0.0	9.699774e-01	1.567371e-02	0.0	1
[...]
POINT_DATA 1841

SCALARS Density double 1
LOOKUP_TABLE default
1.292059e+00	1.292054e+00	1.292115e+00	1.292100e+00	1.292027e+00	1.291955e+00	1.291882e+00	1.291796e+00	1.291698e+00	1.291600e+00	1.291517e+00	1.291475e+00	1.291474e+00	1.291542e+00	1.291663e+00	1.291786e+00	1.291905e+00	1.291997e+00	1.292069e+00	1.292126e+00	1.292166e+00	1.292199e+00	1.292221e+00	1.292243e+00	1.292258e+00	1.292274e+00	1.292290e+00	1.292308e+00	1.292329e+00	1.292358e+00	1.292396e+00	1.292446e+00	1.292508e+00	1.292588e+00	1.292690e+00	1.292797e+00	1.292924e+00	1.293016e+00	1.293044e+00	1.293019e+00	1.292959e+00	1.292872e+00	1.292768e+00	1.292668e+00	1.292576e+00	1.292509e+00	1.292461e+00	1.292362e+00	1.292195e+00	1.555553e+00	1.221388e+00	1.015713e+00	9.126581e-01	8.606472e-01	8.518812e-01	8.533583e-01	8.489171e-01	8.447568e-01	8.493707e-01	8.539121e-01	8.561732e-01	8.630737e-01	8.614914e-01	8.607206e-01	8.638753e-01	8.635578e-01	8.668076e-01	8.679211e-01	8.709980e-01	8.716071e-01	8.709812e-01	8.729322e-01	8.731445e-01	8.745100e-01	8.741883e-01	8.755778e-01	8.746010e-01	8.733902e-01	8.714998e-01	8.691674e-01	8.681048e-01	8.660958e-01	8.651813e-01	8.626015e-01	8.612414e-01	8.584767e-01	8.553058e-01	8.540243e-01	8.517402e-01	8.504631e-01	8.472809e-01	8.452015e-01	8.426655e-01	8.392675e-01	8.374250e-01	8.342477e-01	8.320346e-01	8.273238e-01	8.226208e-01	8.190309e-01	8.134387e-01	8.100563e-01	8.054490e-01	8.001140e-01	7.928765e-01	7.851055e-01	7.935077e-01	8.735465e-01	1.055523e+00	1.144053e+00	1.150105e+00	1.143202e+00	1.143251e+00	1.147953e+00	1.151651e+00	1.156106e+00	1.160116e+00	1.165612e+00	1.170758e+00	1.176376e+00	1.182875e+00	1.188637e+00	1.195100e+00	1.200968e+00	1.207428e+00	1.213440e+00	1.219747e+00	1.225547e+00	1.231651e+00	1.237669e+00	1.243511e+00	1.249761e+00	1.255425e+00	1.261581e+00	1.267356e+00	1.273639e+00	1.279579e+00	1.285965e+00	1.292551e+00	1.298995e+00	1.306237e+00	1.312987e+00	1.320997e+00	1.329503e+00	1.339449e+00	1.349130e+00	1.365326e+00	1.394500e+00	1.375999e+00	1.452596e+00	1.422248e+00	1.423523e+00	1.425995e+00	1.426093e+00	1.427229e+00	1.428243e+00	1.427032e+00	1.428117e+00	1.427325e+00	1.425845e+00	1.425363e+00	1.423518e+00	1.422892e+00	1.420489e+00	1.419275e+00	1.417220e+00	1.414623e+00	1.412518e+00	1.409413e+00	1.407109e+00	1.403803e+00	1.401131e+00	1.397549e+00	1.394533e+00	1.390749e+00	1.387254e+00	1.383466e+00	1.379033e+00	1.374846e+00	1.369842e+00	1.365110e+00	1.359756e+00	1.354378e+00	1.348622e+00	1.342555e+00	1.336365e+00	1.329657e+00	1.323036e+00	1.316212e+00	1.308740e+00	1.301585e+00	1.293282e+00	1.285280e+00	1.277160e+00	1.268104e+00	1.259851e+00	1.249818e+00	1.241341e+00	1.231416e+00	1.222601e+00	1.215666e+00	1.207605e+00	1.203259e+00	1.196638e+00	1.194111e+00	1.193630e+00	1.193508e+00	1.197634e+00	1.200648e+00	1.207289e+00	1.211942e+00	1.218956e+00	1.227353e+00	1.233850e+00	1.241750e+00	1.247525e+00	1.254803e+00	1.260049e+00	1.266394e+00	1.272626e+00	1.278006e+00	1.284829e+00	1.290321e+00	1.297184e+00	1.302582e+00	1.309627e+00	1.315722e+00	1.322339e+00	1.330456e+00	1.337235e+00	1.346427e+00	1.353197e+00	1.362854e+00	1.371203e+00	1.380555e+00	1.393841e+00	1.403147e+00	1.417127e+00	1.433711e+00	1.447532e+00	1.467797e+00	1.490794e+00	1.518503e+00	1.549203e+00	1.582720e+00	1.631588e+00	1.671564e+00	1.385667e+00	1.388796e+00	1.292111e+00	1.292061e+00	1.292085e+00	1.292301e+00	1.292418e+00	1.292297e+00	1.292156e+00	1.292004e+00	1.291909e+00	1.291923e+00	1.292034e+00	1.292070e+00	1.292499e+00	1.292552e+00	1.292488e+00	1.291853e+00	1.291878e+00	1.291954e+00	1.291891e+00	1.291947e+00	1.291803e+00	1.292850e+00	1.291687e+00	1.291608e+00	1.291459e+00	1.291564e+00	1.292753e+00	1.292887e+00	1.291515e+00	1.291593e+00	1.292736e+00	1.292947e+00	1.290652e+00	1.290922e+00	1.290898e+00	1.293125e+00	1.293226e+00	1.293152e+00	1.290736e+00	1.290849e+00	1.291297e+00	1.291363e+00	1.291379e+00	1.291746e+00	1.292400e+00	1.291860e+00	1.290899e+00	1.286976e+00	1.290708e+00	1.291688e+00	1.291259e+00	1.288257e+00	1.379277e+00	1.382605e+00	1.388661e+00	1.293191e+00	1.267751e+00	1.289027e+00	1.397430e+00	1.378107e+00	1.388260e+00	1.361439e+00	1.394680e+00	1.364403e+00	1.282595e+00	1.270749e+00	1.275198e+00	1.362064e+00	1.335585e+00	1.333431e+00	1.341201e+00	1.343338e+00	1.338570e+00	1.330931e+00	1.343620e+00	1.324672e+00	1.318578e+00	1.310788e+00	1.295237e+00	1.262299e+00	1.260340e+00	1.255729e+00	1.316947e+00	1.319332e+00	1.313094e+00	1.310547e+00	1.280056e+00	1.279677e+00	1.299254e+00	1.301231e+00	1.298653e+00	1.306736e+00	1.277849e+00	1.283352e+00	1.279884e+00	1.272658e+00	1.283128e+00	1.288199e+00	1.292882e+00	1.261353e+00	1.276028e+00	1.264586e+00	1.274580e+00	1.267404e+00	1.268742e+00	1.255098e+00	1.250589e+00	1.238072e+00	1.243101e+00	1.236237e+00	1.263213e+00	1.250387e+00	1.231620e+00	1.231556e+00	1.225955e+00	1.226313e+00	1.220779e+00	1.218265e+00	1.214338e+00	1.212474e+00	1.221853e+00	1.220424e+00	1.208371e+00	1.217006e+00	1.275854e+00	1.243875e+00	1.186547e+00	1.178596e+00	1.181690e+00	1.165553e+00	1.162927e+00	1.160262e+00	1.158369e+00	1.278228e+00	1.261303e+00	1.274203e+00	1.291071e+00	1.148834e+00	1.153874e+00	1.153171e+00	1.166700e+00	1.158389e+00	1.159294e+00	1.052630e+00	1.169378e+00	1.039155e+00	9.870542e-01	1.036831e+00	1.130804e+00	1.161458e+00	1.161670e+00	1.162369e+00	1.006938e+00	1.132726e+00	8.677590e-01	9.764806e-01	9.168356e-01	1.290162e+00	1.289414e+00	1.290301e+00	9.207858e-01	1.022113e+00	9.198360e-01	8.121230e-01	8.075411e-01	8.191809e-01	8.421412e-01	8.303624e-01	8.296172e-01	8.343241e-01	8.358883e-01	8.282778e-01	9.727601e-01	9.658180e-01	9.221073e-01	8.277428e-01	8.367689e-01	8.325530e-01	8.411546e-01	8.526290e-01	8.494093e-01	8.444303e-01	1.291637e+00	1.291494e+00	8.452143e-01	9.000770e-01	9.055016e-01	9.233939e-01	8.570239e-01	8.511641e-01	8.618757e-01	8.539785e-01	8.684269e-01	8.643367e-01	8.594976e-01	8.826402e-01	8.944933e-01	8.866297e-01	8.730714e-01	8.632418e-01	8.614621e-01	8.632009e-01	8.717612e-01	8.672264e-01	9.559849e-01	9.374649e-01	8.697664e-01	8.743563e-01	8.841425e-01	8.787343e-01	8.769184e-01	8.775556e-01	8.857560e-01	8.843631e-01	1.006939e+00	1.075462e+00	1.063802e+00	8.769929e-01	1.004719e+00	9.933596e-01	9.571508e-01	8.875374e-01	8.894450e-01	1.291490e+00	8.990794e-01	8.886067e-01	8.860069e-01	8.844035e-01	8.961685e-01	8.942572e-01	9.090864e-01	1.283414e+00	1.285666e+00	1.286136e+00	9.101325e-01	8.760531e-01	8.822009e-01	9.202870e-01	9.159904e-01	9.314331e-01	8.975828e-01	8.970222e-01	9.080554e-01	9.252652e-01	9.353885e-01	9.485820e-01	1.291713e+00	8.792166e-01	8.985020e-01	8.904550e-01	8.842266e-01	1.291821e+00	1.279714e+00	1.283359e+00	1.285543e+00	1.291332e+00	1.290855e+00	1.290780e+00	1.292056e+00	1.291574e+00	1.291972e+00	1.291275e+00	1.291974e+00	1.292014e+00	1.292092e+00	1.292020e+00	8.784970e-01	1.292176e+00	1.292218e+00	1.292243e+00	1.292196e+00	9.093629e-01	9.523169e-01	9.383167e-01	1.292292e+00	1.292268e+00	1.292333e+00	1.292321e+00	1.292308e+00	1.292292e+00	1.292270e+00	1.292355e+00	1.292255e+00	1.292183e+00	1.292223e+00	1.292421e+00	1.292449e+00	1.292538e+00	1.292390e+00	1.292376e+00	1.292460e+00	1.292468e+00	1.292551e+00	8.740963e-01	1.292549e+00	1.292660e+00	1.292550e+00	1.292736e+00	1.292812e+00	1.292878e+00	1.252921e+00	1.268309e+00	1.278266e+00	1.292513e+00	1.292815e+00	1.297220e+00	1.295146e+00	1.295534e+00	1.314291e+00	1.307389e+00	1.307062e+00	1.426524e+00	1.437993e+00	1.406482e+00	1.439214e+00	1.450803e+00	1.420624e+00	1.293740e+00	1.293535e+00	1.293758e+00	1.525004e+00	1.502194e+00	1.512933e+00	1.475987e+00	1.484888e+00	1.503373e+00	1.473876e+00	1.448162e+00	1.464483e+00	1.489517e+00	1.475987e+00	1.511977e+00	1.371686e+00	1.366324e+00	1.387291e+00	1.467825e+00	1.452327e+00	1.454444e+00	1.442469e+00	1.407226e+00	1.382122e+00	1.398703e+00	1.293314e+00	1.293199e+00	1.434978e+00	1.429149e+00	1.392921e+00	1.382226e+00	1.375186e+00	1.382294e+00	1.386230e+00	1.355612e+00	1.344210e+00	1.350587e+00	1.345993e+00	1.337762e+00	1.345819e+00	1.331489e+00	1.329761e+00	1.334279e+00	1.327459e+00	1.338089e+00	1.318533e+00	1.322792e+00	1.328559e+00	1.349271e+00	1.329291e+00	1.322159e+00	1.302724e+00	1.308199e+00	1.310465e+00	1.296812e+00	1.292308e+00	1.284219e+00	1.277843e+00	1.282642e+00	1.290343e+00	1.293813e+00	1.298991e+00	1.275874e+00	1.271515e+00	1.268245e+00	1.255529e+00	1.266477e+00	1.265722e+00	1.293053e+00	1.393330e+00	1.397734e+00	1.396476e+00	1.394191e+00	1.297206e+00	1.296712e+00	1.295753e+00	1.242684e+00	1.248595e+00	1.294315e+00	1.293716e+00	1.293612e+00	1.250953e+00	1.256043e+00	1.260403e+00	1.314812e+00	1.309357e+00	1.313284e+00	1.245403e+00	1.236907e+00	1.244370e+00	1.280489e+00	1.271675e+00	1.214092e+00	1.220613e+00	1.219779e+00	1.212179e+00	1.214445e+00	1.221837e+00	1.221061e+00	1.211946e+00	1.293084e+00	1.261293e+00	1.276500e+00	1.279758e+00	1.202732e+00	1.205985e+00	1.205393e+00	1.201440e+00	1.209761e+00	1.201608e+00	1.200758e+00	1.304667e+00	1.304045e+00	1.310012e+00	1.207240e+00	1.209420e+00	1.233041e+00	1.226227e+00	1.280396e+00	1.281942e+00	1.290410e+00	1.260665e+00	1.257109e+00	1.250357e+00	1.271371e+00	1.271910e+00	1.264782e+00	1.278925e+00	1.283422e+00	1.276460e+00	1.286766e+00	1.286448e+00	1.298519e+00	1.311566e+00	1.322311e+00	1.310951e+00	1.320282e+00	1.323944e+00	1.326276e+00	1.340090e+00	1.334565e+00	1.332047e+00	1.328694e+00	1.326828e+00	1.336652e+00	1.340330e+00	1.350977e+00	1.356446e+00	1.361032e+00	1.365777e+00	1.360710e+00	1.356233e+00	1.358086e+00	1.364261e+00	1.366999e+00	1.370758e+00	1.375430e+00	1.379678e+00	1.377007e+00	1.372440e+00	1.374910e+00	1.382734e+00	1.378951e+00	1.413467e+00	1.415286e+00	1.416304e+00	1.418115e+00	1.420762e+00	1.417965e+00	1.418302e+00	1.420104e+00	1.422700e+00	1.424700e+00	1.421812e+00	1.414611e+00	1.412606e+00	1.420184e+00	1.418363e+00	1.423329e+00	1.425372e+00	1.422498e+00	1.424808e+00	1.404516e+00	1.408207e+00	1.399018e+00	1.409833e+00	1.411311e+00	1.392901e+00	1.398722e+00	1.397801e+00	1.401104e+00	1.391852e+00	1.328824e+00	1.328586e+00	1.345226e+00	9.057407e-01	9.154736e-01	8.818412e-01	1.291317e+00	1.291421e+00	1.290206e+00	1.293738e+00	1.293214e+00	1.294133e+00	1.293039e+00	1.419595e+00	1.292524e+00	1.292626e+00	9.969060e-01	9.659732e-01	1.292962e+00	1.292646e+00	1.291547e+00	1.291446e+00	1.291400e+00	1.292196e+00	1.292093e+00	1.292107e+00	1.292104e+00	1.292105e+00	1.292095e+00	1.292878e+00	1.292875e+00	1.292670e+00	1.292325e+00	1.292287e+00	1.292368e+00	1.292090e+00	1.292244e+00	1.288145e+00	1.286462e+00	1.289071e+00	1.292013e+00	1.292101e+00	1.291980e+00	1.293486e+00	1.293281e+00	1.293625e+00	1.299751e+00	1.297908e+00	1.293382e+00	1.292762e+00	1.292484e+00	1.292603e+00	1.292602e+00	1.291216e+00	1.290648e+00	1.291028e+00	1.291080e+00	1.292393e+00	1.292307e+00	1.292179e+00	1.292076e+00	1.292101e+00	1.292050e+00	1.291960e+00	1.292088e+00	1.291438e+00	1.291376e+00	1.292004e+00	1.291405e+00	1.291642e+00	1.291770e+00	1.293236e+00	1.293140e+00	1.293149e+00	1.293092e+00	1.292144e+00	1.292926e+00	1.293220e+00	1.293169e+00	1.292707e+00	1.291830e+00	1.291816e+00	1.291637e+00	1.291473e+00	1.292419e+00	1.293374e+00	1.292168e+00	1.292132e+00	1.292765e+00	1.292648e+00	1.292809e+00	1.292648e+00	8.835440e-01	1.289860e+00	1.423208e+00	1.424545e+00	1.421517e+00	1.294706e+00	1.292666e+00	1.293212e+00	1.293737e+00	1.293234e+00	1.291665e+00	1.291506e+00	1.289692e+00	1.291312e+00	1.291256e+00	1.291133e+00	1.292420e+00	1.292345e+00	1.293277e+00	1.292737e+00	1.292712e+00	1.292751e+00	1.306262e+00	1.264570e+00	1.304441e+00	1.292086e+00	1.292000e+00	1.292304e+00	1.295435e+00	1.293606e+00	1.294117e+00	1.253257e+00	1.287104e+00	8.712905e-01	1.291908e+00	1.292149e+00	1.291889e+00	1.291346e+00	1.291769e+00	1.291826e+00	1.291962e+00	1.293001e+00	1.291297e+00	1.291165e+00	1.291430e+00	1.291484e+00	1.291441e+00	1.292100e+00	1.292116e+00	1.292852e+00	1.293060e+00	1.293525e+00	1.292543e+00	1.292566e+00	1.292908e+00	1.291278e+00	1.291488e+00	1.291588e+00	1.293028e+00	1.292445e+00	1.292319e+00	1.292683e+00	1.292677e+00	1.292533e+00	1.293183e+00	1.293373e+00	1.293102e+00	1.292900e+00	1.292999e+00	1.291675e+00	1.291109e+00	1.293073e+00	1.291732e+00	1.292253e+00	1.292280e+00	1.292244e+00	1.292129e+00	1.294079e+00	1.292655e+00	1.288148e+00	1.329645e+00	1.323947e+00	1.317883e+00	1.293405e+00	1.293015e+00	1.291590e+00	1.291625e+00	1.291218e+00	1.293021e+00	1.292154e+00	1.291952e+00	1.292003e+00	1.291760e+00	1.291704e+00	1.291281e+00	1.291739e+00	1.295655e+00	1.297256e+00	8.848652e-01	1.294572e+00	1.292427e+00	1.293106e+00	1.294370e+00	1.291883e+00	1.288043e+00	1.292367e+00	1.294769e+00	1.293237e+00	1.294266e+00	1.293940e+00	1.297305e+00	1.294237e+00	1.294117e+00	1.288548e+00	1.289376e+00	1.290740e+00	1.423970e+00	1.295381e+00	1.292506e+00	1.289307e+00	1.289829e+00	1.298891e+00	1.290979e+00	1.291798e+00	1.290520e+00	1.293168e+00	1.291329e+00	1.292589e+00	1.291373e+00	1.292252e+00	1.311735e+00	1.303223e+00	1.281882e+00	1.279413e+00	1.296291e+00	1.291464e+00	1.295318e+00	1.297357e+00	1.301583e+00	1.297603e+00	1.298012e+00	1.269441e+00	1.253915e+00	1.291197e+00	1.299063e+00	1.297609e+00	1.304042e+00	1.301457e+00	1.300732e+00	1.294541e+00	1.277327e+00	1.284443e+00	1.291513e+00	1.291372e+00	1.299427e+00	1.300940e+00	1.289303e+00	1.289597e+00	1.284466e+00	1.300462e+00	1.292182e+00	1.305418e+00	1.461335e+00	1.514325e+00	1.490557e+00	1.295706e+00	1.290498e+00	1.285732e+00	9.789905e-01	9.337777e-01	9.629624e-01	1.289423e+00	1.305082e+00	1.308252e+00	1.303650e+00	1.294888e+00	1.289941e+00	1.291803e+00	1.310856e+00	1.304105e+00	1.304449e+00	1.156168e+00	1.292814e+00	1.309795e+00	1.299788e+00	1.301761e+00	1.535805e+00	1.562937e+00	1.535430e+00	1.294780e+00	1.315522e+00	1.276137e+00	1.256184e+00	1.384016e+00	1.318288e+00	1.317570e+00	1.311805e+00	1.228898e+00	1.229972e+00	1.239774e+00	1.284745e+00	1.294346e+00	1.285841e+00	1.302149e+00	1.299858e+00	1.308809e+00	1.309724e+00	1.294778e+00	1.326731e+00	1.294762e+00	1.165892e+00	1.289397e+00	1.567113e+00	1.575017e+00	1.541648e+00	1.354139e+00	1.377898e+00	1.382663e+00	1.297528e+00	1.265743e+00	1.283462e+00	1.318554e+00	1.232654e+00	1.236192e+00	1.198857e+00	1.235500e+00	1.286298e+00	1.191614e+00	1.183811e+00	1.182633e+00	1.304341e+00	1.300670e+00	1.323553e+00	1.318129e+00	1.322408e+00	1.311897e+00	1.308949e+00	1.310572e+00	1.320219e+00	1.324968e+00	1.319938e+00	1.409272e+00	1.408667e+00	1.322801e+00	1.455864e+00	1.315614e+00	1.032025e+00	9.693011e-01	1.163974e+00	1.214544e+00	1.136043e+00	1.115868e+00	1.198435e+00	1.329763e+00	1.372316e+00	1.369999e+00	1.364108e+00	1.299505e+00	1.303639e+00	1.299644e+00	1.336810e+00	1.340874e+00	1.165981e+00	1.145231e+00	1.222735e+00	8.846092e-01	1.310983e+00	1.425560e+00	1.419524e+00	1.290370e+00	1.337732e+00	1.200246e+00	1.193961e+00	1.190527e+00	1.254268e+00	1.268426e+00	1.333062e+00	1.333749e+00	1.320651e+00	1.291186e+00	1.313170e+00	1.354516e+00	1.349476e+00	1.323031e+00	1.317567e+00	1.311593e+00	1.390663e+00	1.335942e+00	1.350790e+00	1.345533e+00	1.338499e+00	1.319931e+00	1.323837e+00	1.302001e+00	1.300127e+00	1.314394e+00	1.309990e+00	1.265673e+00	1.332608e+00	1.096820e+00	1.208175e+00	1.074393e+00	1.026704e+00	1.335681e+00	1.326496e+00	1.328452e+00	1.303362e+00	1.351275e+00	8.817957e-01	1.322328e+00	1.343659e+00	1.411048e+00	1.414488e+00	1.330913e+00	1.328721e+00	1.024180e+00	1.319683e+00	1.273109e+00	1.210621e+00	1.302640e+00	1.308831e+00	1.300050e+00	1.362468e+00	1.355992e+00	1.366530e+00	1.322771e+00	1.356876e+00	1.352228e+00	1.360088e+00	1.354617e+00	1.339501e+00	1.327889e+00	1.084794e+00	1.018641e+00	1.352624e+00	1.327000e+00	1.365855e+00	1.368871e+00	1.189435e+00	1.184100e+00	1.281758e+00	1.255256e+00	1.258310e+00	1.232000e+00	1.144974e+00	1.164021e+00	1.071371e+00	1.216201e+00	1.358438e+00	1.346134e+00	1.144264e+00	1.332114e+00	1.347303e+00	1.356370e+00	1.363600e+00	1.327345e+00	1.319485e+00	1.311509e+00	1.318368e+00	8.448851e-01	9.795058e-01	1.312567e+00	1.333915e+00	1.314648e+00	1.335626e+00	1.337930e+00	1.355331e+00	1.372987e+00	1.241482e+00	1.241347e+00	1.250174e+00	1.264687e+00	1.275101e+00	1.393272e+00	1.420241e+00	1.396842e+00	1.425206e+00	9.537763e-01	9.244169e-01	8.549804e-01	1.163907e+00	9.991442e-01	9.808091e-01	1.368602e+00	1.374569e+00	1.302197e+00	1.286252e+00	1.269479e+00	1.286587e+00	1.027826e+00	1.083776e+00	1.300518e+00	1.298376e+00	8.864152e-01	1.240707e+00	1.227503e+00	1.229339e+00	1.294214e+00	1.318664e+00	1.349804e+00	1.399518e+00	1.328916e+00	9.138898e-01	1.371985e+00	1.361112e+00	1.365677e+00	1.283350e+00	1.260387e+00	1.235130e+00	1.302713e+00	1.209269e+00	1.160289e+00	1.298181e+00	1.310849e+00	1.289951e+00	1.353192e+00	1.372307e+00	1.374403e+00	1.383276e+00	1.221675e+00	1.214017e+00	1.201360e+00	1.446534e+00	1.406350e+00	1.436059e+00	1.280407e+00	1.229658e+00	1.220572e+00	1.318866e+00	9.038868e-01	8.819259e-01	8.940760e-01	8.031170e-01	9.340354e-01	9.356894e-01	9.606083e-01	1.184102e+00	1.072496e+00	1.370373e+00	1.379272e+00	1.369547e+00	1.403601e+00	9.408820e-01	9.335909e-01	1.319071e+00	1.298209e+00	1.338573e+00	1.339347e+00	1.325543e+00	1.373722e+00	1.375706e+00	1.327268e+00	1.147010e+00	1.077589e+00	8.879565e-01	1.279114e+00	1.272304e+00	1.262654e+00	1.244101e+00	1.251174e+00	1.282292e+00	1.264025e+00	1.270631e+00	9.164449e-01	8.775824e-01	1.471221e+00	1.511762e+00	1.488069e+00	1.202687e+00	1.316400e+00	1.304669e+00	1.276040e+00	1.400068e+00	1.441159e+00	1.423943e+00	1.440792e+00	1.375787e+00	1.377802e+00	1.379169e+00	1.388598e+00	1.409839e+00	1.351999e+00	1.199180e+00	1.185570e+00	1.389912e+00	1.384161e+00	1.385798e+00	1.340892e+00	1.349016e+00	1.314725e+00	1.300805e+00	1.311684e+00	1.327099e+00	1.335917e+00	1.477201e+00	1.435796e+00	1.508280e+00	1.243607e+00	1.228414e+00	1.215208e+00	1.337846e+00	1.334855e+00	1.342750e+00	1.337368e+00	9.219555e-01	9.379540e-01	9.224068e-01	1.389281e+00	1.396548e+00	1.388239e+00	1.404571e+00	1.398495e+00	1.340162e+00	1.325712e+00	1.315518e+00	1.310481e+00	8.789057e-01	1.112042e+00	1.037403e+00	1.340078e+00	1.382420e+00	1.389532e+00	1.437527e+00	1.408352e+00	1.415628e+00	1.248477e+00	1.242788e+00	8.669941e-01	8.723945e-01	1.168710e+00	8.616824e-01	8.973390e-01	9.123065e-01	1.148844e+00	1.267302e+00	1.297650e+00	1.301207e+00	1.248929e+00	1.323258e+00	1.302653e+00	1.332493e+00	1.351204e+00	1.348660e+00	1.357277e+00	1.384262e+00	1.219041e+00	1.218312e+00	1.231880e+00	1.240028e+00	1.367796e+00	1.372005e+00	1.349800e+00	1.483322e+00	1.452033e+00	1.183607e+00	1.232834e+00	1.237021e+00	1.244032e+00	8.883054e-01	9.019662e-01	9.064279e-01	1.234573e+00	1.250167e+00	1.245812e+00	1.313573e+00	1.316879e+00	1.365103e+00	1.339638e+00	8.698731e-01	1.295652e+00	1.365956e+00	8.836954e-01	8.740386e-01	8.884283e-01	8.475833e-01	1.343984e+00	1.283216e+00	1.171311e+00	1.175513e+00	9.545701e-01	1.387999e+00	1.394988e+00	7.896200e-01	1.153606e+00	9.337050e-01	9.162691e-01	9.138996e-01	1.332146e+00	1.331765e+00	1.310814e+00	1.549481e+00	1.536470e+00	1.286362e+00	1.280538e+00	1.278584e+00	1.377520e+00	1.395161e+00	1.196955e+00	1.291974e+00	1.239517e+00	1.235503e+00	1.226489e+00	1.343830e+00	1.330708e+00	1.366750e+00	1.361516e+00	1.372298e+00	1.263352e+00	8.888367e-01	1.252586e+00	1.304032e+00	1.307143e+00	1.224449e+00	1.255757e+00	1.361977e+00	1.403346e+00	1.423284e+00	1.328087e+00	1.204113e+00	1.191904e+00	1.360224e+00	9.085685e-01	1.021042e+00	9.720518e-01	1.176028e+00	8.443590e-01	8.404366e-01	8.674303e-01	8.784243e-01	1.378877e+00	1.382939e+00	1.330136e+00	1.319258e+00	8.557725e-01	8.565840e-01	1.269283e+00	1.348934e+00	1.362612e+00	1.331934e+00	1.341860e+00	1.323878e+00	9.762491e-01	9.372195e-01	9.692939e-01	1.312162e+00	1.217344e+00	1.236207e+00	1.290664e+00	1.073526e+00	1.349312e+00	1.350657e+00	1.355832e+00	1.358283e+00	1.403944e+00	1.554644e+00	1.587399e+00	1.504138e+00	1.461907e+00	1.167349e+00	1.162148e+00	1.221335e+00	1.224438e+00	1.294125e+00	1.288758e+00	1.304270e+00	1.375058e+00	1.378485e+00	1.354480e+00	1.345764e+00	8.320991e-01	8.330499e-01	1.235824e+00	1.229648e+00	1.255408e+00	1.217834e+00	1.209403e+00	1.205074e+00	1.232586e+00	8.962162e-01	8.916454e-01	9.014879e-01	8.778289e-01	8.689026e-01	8.721818