# vtk DataFile Version 3.0
vtk output
ASCII
DATASET UNSTRUCTURED_GRID
POINTS 198 double
0.000000e+00	0.000000e+00	0.0	1.488382e-03	4.706598e-03	0.0	4.729298e-03	8.709208e-03	0.0	8.960773e-03	1.200800e-02	0.0	1.377211e-02	1.481082e-02	0.0	1.898148e-02	1.729171e-02	0.0	2.450839e-02	1.956573e-02	0.0	3.031646e-02	2.170182e-02	0.0	3.640678e-02	2.368159e-02	0.0	4.275644e-02	2.556158e-02	0.0	4.934929e-02	2.740459e-02	0.0	5.620341e-02	2.915135e-02	0.0	6.330642e-02	3.085116e-02	0.0	7.065477e-02	3.253381e-02	0.0	7.826755e-02	3.411931e-02	0.0	8.612502e-02	3.570894e-02	0.0	9.424359e-02	3.723200e-02	0.0	1.026161e-01	3.873041e-02	0.0	1.112448e-01	4.020140e-02	0.0	1.201352e-01	4.161485e-02	0.0	1.292780e-01	4.303285e-02	0.0	1.386872e-01	4.436293e-02	0.0	1.483482e-01	4.570003e-02	0.0	1.582709e-01	4.696841e-02	0.0	1.684468e-01	4.821680e-02	0.0	1.788773e-01	4.942085e-02	0.0	1.895599e-01	5.057634e-02	0.0	2.004884e-01	5.171229e-02	0.0	2.116645e-01	5.277078e-02	0.0	2.230769e-01	5.382437e-02	0.0	2.347277e-01	5.478919e-02	0.0	2.466050e-01	5.573642e-02	0.0	2.587062e-01	5.661823e-02	0.0	2.710224e-01	5.745154e-02	0.0	2.835455e-01	5.824452e-02	0.0	2.962690e-01	5.895808e-02	0.0	3.091804e-01	5.965252e-02	0.0	3.222741e-01	6.024210e-02	0.0	3.355357e-01	6.080298e-02	0.0	3.489565e-01	6.128503e-02	0.0	3.625238e-01	6.170313e-02	0.0	3.762252e-01	6.207156e-02	0.0	3.900488e-01	6.233973e-02	0.0	4.039801e-01	6.257569e-02	0.0	4.180065e-01	6.270156e-02	0.0	4.321130e-01	6.277788e-02	0.0	4.462857e-01	6.277497e-02	0.0	4.605094e-01	6.267911e-02	0.0	4.747698e-01	6.253694e-02	0.0	4.890502e-01	6.225260e-02	0.0	5.033369e-01	6.192359e-02	0.0	5.176131e-01	6.147262e-02	0.0	5.318639e-01	6.093655e-02	0.0	5.460747e-01	6.032108e-02	0.0	5.602274e-01	5.957265e-02	0.0	5.743120e-01	5.878128e-02	0.0	5.883073e-01	5.783957e-02	0.0	6.022055e-01	5.685326e-02	0.0	6.159897e-01	5.577447e-02	0.0	6.296475e-01	5.462454e-02	0.0	6.431689e-01	5.343202e-02	0.0	6.565370e-01	5.215043e-02	0.0	6.697473e-01	5.085547e-02	0.0	6.827818e-01	4.947899e-02	0.0	6.956367e-01	4.808765e-02	0.0	7.082990e-01	4.665075e-02	0.0	7.207611e-01	4.518415e-02	0.0	7.330162e-01	4.370146e-02	0.0	7.450534e-01	4.217827e-02	0.0	7.568719e-01	4.066395e-02	0.0	7.684581e-01	3.910384e-02	0.0	7.798146e-01	3.756074e-02	0.0	7.909308e-01	3.599289e-02	0.0	8.018073e-01	3.443589e-02	0.0	8.124383e-01	3.287479e-02	0.0	8.228223e-01	3.131958e-02	0.0	8.329579e-01	2.977650e-02	0.0	8.428421e-01	2.823711e-02	0.0	8.524771e-01	2.672306e-02	0.0	8.618587e-01	2.521070e-02	0.0	8.709918e-01	2.373127e-02	0.0	8.798722e-01	2.225536e-02	0.0	8.885056e-01	2.081207e-02	0.0	8.968905e-01	1.938321e-02	0.0	9.050310e-01	1.798172e-02	0.0	9.129284e-01	1.660297e-02	0.0	9.205855e-01	1.524701e-02	0.0	9.280067e-01	1.392206e-02	0.0	9.351928e-01	1.261437e-02	0.0	9.421503e-01	1.134060e-02	0.0	9.488808e-01	1.008772e-02	0.0	9.553897e-01	8.864213e-03	0.0	9.616816e-01	7.671003e-03	0.0	9.677588e-01	6.497384e-03	0.0	9.736276e-01	5.353367e-03	0.0	9.792925e-01	4.236524e-03	0.0	9.847575e-01	3.143696e-03	0.0	9.900275e-01	2.075164e-03	0.0	9.951070e-01	1.028680e-03	0.0	1.000000e+00	0.000000e+00	0.0	9.950075e-01	2.737954e-04	0.0	9.898274e-01	5.203515e-04	0.0	9.844550e-01	7.375129e-04	0.0	9.788854e-01	9.212927e-04	0.0	9.731140e-01	1.058151e-03	0.0	9.671365e-01	1.153163e-03	0.0	9.609487e-01	1.210505e-03	0.0	9.545463e-01	1.200848e-03	0.0	9.479256e-01	1.136516e-03	0.0	9.410825e-01	1.034805e-03	0.0	9.340145e-01	8.383345e-04	0.0	9.267170e-01	6.061839e-04	0.0	9.191879e-01	2.982302e-04	0.0	9.114242e-01	-7.392817e-05	0.0	9.034227e-01	-5.025729e-04	0.0	8.951832e-01	-1.021846e-03	0.0	8.867004e-01	-1.579165e-03	0.0	8.779779e-01	-2.250055e-03	0.0	8.690092e-01	-2.957713e-03	0.0	8.597984e-01	-3.765968e-03	0.0	8.503413e-01	-4.627329e-03	0.0	8.406409e-01	-5.573679e-03	0.0	8.306967e-01	-6.589269e-03	0.0	8.205097e-01	-7.674194e-03	0.0	8.100834e-01	-8.842153e-03	0.0	7.994170e-01	-1.006444e-02	0.0	7.885182e-01	-1.138158e-02	0.0	7.773845e-01	-1.274152e-02	0.0	7.660274e-01	-1.420238e-02	0.0	7.544448e-01	-1.570790e-02	0.0	7.426473e-01	-1.729633e-02	0.0	7.306374e-01	-1.893775e-02	0.0	7.184233e-01	-2.064116e-02	0.0	7.060116e-01	-2.239879e-02	0.0	6.934090e-01	-2.419963e-02	0.0	6.806254e-01	-2.604841e-02	0.0	6.676678e-01	-2.792716e-02	0.0	6.545468e-01	-2.983763e-02	0.0	6.412715e-01	-3.176732e-02	0.0	6.278525e-01	-3.370993e-02	0.0	6.143004e-01	-3.565547e-02	0.0	6.006277e-01	-3.760373e-02	0.0	5.868439e-01	-3.952735e-02	0.0	5.729655e-01	-4.145022e-02	0.0	5.589983e-01	-4.331110e-02	0.0	5.449622e-01	-4.515076e-02	0.0	5.308656e-01	-4.692300e-02	0.0	5.167233e-01	-4.862443e-02	0.0	5.025516e-01	-5.026722e-02	0.0	4.883567e-01	-5.176653e-02	0.0	4.741638e-01	-5.321382e-02	0.0	4.599744e-01	-5.446492e-02	0.0	4.458146e-01	-5.562298e-02	0.0	4.316936e-01	-5.662135e-02	0.0	4.176275e-01	-5.744278e-02	0.0	4.036352e-01	-5.816324e-02	0.0	3.897255e-01	-5.862271e-02	0.0	3.759204e-01	-5.900269e-02	0.0	3.622302e-01	-5.915434e-02	0.0	3.486719e-01	-5.918556e-02	0.0	3.352576e-01	-5.907619e-02	0.0	3.220014e-01	-5.880108e-02	0.0	3.089127e-01	-5.846553e-02	0.0	2.960066e-01	-5.794473e-02	0.0	2.832883e-01	-5.739028e-02	0.0	2.707706e-01	-5.672156e-02	0.0	2.584597e-01	-5.599787e-02	0.0	2.463634e-01	-5.521498e-02	0.0	2.344907e-01	-5.435476e-02	0.0	2.228439e-01	-5.347453e-02	0.0	2.114352e-01	-5.249595e-02	0.0	2.002622e-01	-5.150968e-02	0.0	1.893361e-01	-5.044287e-02	0.0	1.786556e-01	-4.935147e-02	0.0	1.682262e-01	-4.821098e-02	0.0	1.580510e-01	-4.702214e-02	0.0	1.481282e-01	-4.581459e-02	0.0	1.384665e-01	-4.453292e-02	0.0	1.290565e-01	-4.325608e-02	0.0	1.199119e-01	-4.188860e-02	0.0	1.110202e-01	-4.051957e-02	0.0	1.023894e-01	-3.909167e-02	0.0	9.401537e-02	-3.762872e-02	0.0	8.589449e-02	-3.614143e-02	0.0	7.803635e-02	-3.457488e-02	0.0	7.042341e-02	-3.300777e-02	0.0	6.307601e-02	-3.133507e-02	0.0	5.597712e-02	-2.963069e-02	0.0	4.912807e-02	-2.787405e-02	0.0	4.254794e-02	-2.599415e-02	0.0	3.621496e-02	-2.406602e-02	0.0	3.014500e-02	-2.202964e-02	0.0	2.436666e-02	-1.981801e-02	0.0	1.887371e-02	-1.746610e-02	0.0	1.370090e-02	-1.491164e-02	0.0	8.923984e-03	-1.205166e-02	0.0	4.718738e-03	-8.719505e-03	0.0	1.489344e-03	-4.706710e-03	0.0	
CELLS 198	594
2	25	26	2	26	27	2	27	28	2	28	29	2	29	30	2	30	31	2	31	32	2	32	33	2	33	34	2	34	35	2	35	36	2	36	37	2	37	38	2	38	39	2	39	40	2	40	41	2	41	42	2	42	43	2	43	44	2	44	45	2	45	46	2	46	47	2	47	48	2	48	49	2	49	50	2	50	51	2	51	52	2	52	53	2	53	54	2	54	55	2	55	56	2	56	57	2	57	58	2	58	59	2	59	60	2	60	61	2	61	62	2	62	63	2	63	64	2	64	65	2	65	66	2	66	67	2	67	68	2	68	69	2	69	70	2	70	71	2	71	72	2	72	73	2	73	74	2	74	75	2	75	76	2	76	77	2	77	78	2	78	79	2	79	80	2	80	81	2	81	82	2	82	83	2	83	84	2	84	85	2	85	86	2	86	87	2	87	88	2	88	89	2	89	90	2	90	91	2	91	92	2	92	93	2	93	94	2	94	95	2	95	96	2	96	97	2	97	98	2	98	99	2	99	100	2	100	101	2	101	102	2	102	103	2	103	104	2	104	105	2	105	106	2	106	107	2	107	108	2	108	109	2	109	110	2	110	111	2	111	112	2	112	113	2	113	114	2	114	115	2	115	116	2	116	117	2	117	118	2	118	119	2	119	120	2	120	121	2	121	122	2	122	123	2	123	124	2	124	125	2	125	126	2	126	127	2	127	128	2	128	129	2	129	130	2	130	131	2	131	132	2	132	133	2	133	134	2	134	135	2	135	136	2	136	137	2	137	138	2	138	139	2	139	140	2	140	141	2	141	142	2	142	143	2	143	144	2	144	145	2	145	146	2	146	147	2	147	148	2	148	149	2	149	150	2	150	151	2	151	152	2	152	153	2	153	154	2	154	155	2	155	156	2	156	157	2	157	158	2	158	159	2	159	160	2	160	161	2	0	1	2	1	2	2	2	3	2	3	4	2	4	5	2	5	6	2	6	7	2	7	8	2	8	9	2	9	10	2	10	11	2	11	12	2	12	13	2	13	14	2	14	15	2	15	16	2	16	17	2	17	18	2	18	19	2	19	20	2	20	21	2	21	22	2	22	23	2	23	24	2	24	25	2	161	162	2	162	163	2	163	164	2	164	165	2	165	166	2	166	167	2	167	168	2	168	169	2	169	170	2	170	171	2	171	172	2	172	173	2	173	174	2	174	175	2	175	176	2	176	177	2	177	178	2	178	179	2	179	180	2	180	181	2	181	182	2	182	183	2	183	184	2	184	185	2	185	186	2	186	187	2	187	188	2	188	189	2	189	190	2	190	191	2	191	192	2	192	193	2	193	194	2	194	195	2	195	196	2	196	197	2	197	0	
CELL_TYPES 198
3	3	3	3	3	3	3	3	3	3	3	3	3	3	3	3	3	3	3	3	3	3	3	3	3	3	3	3	3	3	3	3	3	3	3	3	3	3	3	3	3	3	3	3	3	3	3	3	3	3	3	3	3	3	3	3	3	3	3	3	3	3	3	3	3	3	3	3	3	3	3	3	3	3	3	3	3	3	3	3	3	3	3	3	3	3	3	3	3	3	3	3	3	3	3	3	3	3	3	3	3	3	3	3	3	3	3	3	3	3	3	3	3	3	3	3	3	3	3	3	3	3	3	3	3	3	3	3	3	3	3	3	3	3	3	3	3	3	3	3	3	3	3	3	3	3	3	3	3	3	3	3	3	3	3	3	3	3	3	3	3	3	3	3	3	3	3	3	3	3	3	3	3	3	3	3	3	3	3	3	3	3	3	3	3	3	3	3	3	3	3	3	3	3	3	3	3	3	
POINT_DATA 198

SCALARS Density double 1
LOOKUP_TABLE default
1.555553e+00	1.221388e+00	1.015713e+00	9.126581e-01	8.606472e-01	8.518812e-01	8.533583e-01	8.489171e-01	8.447568e-01	8.493707e-01	8.539121e-01	8.561732e-01	8.630737e-01	8.614914e-01	8.607206e-01	8.638753e-01	8.635578e-01	8.668076e-01	8.679211e-01	8.709980e-01	8.716071e-01	8.709812e-01	8.729322e-01	8.731445e-01	8.745100e-01	8.741883e-01	8.755778e-01	8.746010e-01	8.733902e-01	8.714998e-01	8.691674e-01	8.681048e-01	8.660958e-01	8.651813e-01	8.626015e-01	8.612414e-01	8.584767e-01	8.553058e-01	8.540243e-01	8.517402e-01	8.504631e-01	8.472809e-01	8.452015e-01	8.426655e-01	8.392675e-01	8.374250e-01	8.342477e-01	8.320346e-01	8.273238e-01	8.226208e-01	8.190309e-01	8.134387e-01	8.100563e-01	8.054490e-01	8.001140e-01	7.928765e-01	7.851055e-01	7.935077e-01	8.735465e-01	1.055523e+00	1.144053e+00	1.150105e+00	1.143202e+00	1.143251e+00	1.147953e+00	1.151651e+00	1.156106e+00	1.160116e+00	1.165612e+00	1.170758e+00	1.176376e+00	1.182875e+00	1.188637e+00	1.195100e+00	1.200968e+00	1.207428e+00	1.213440e+00	1.219747e+00	1.225547e+00	1.231651e+00	1.237669e+00	1.243511e+00	1.249761e+00	1.255425e+00	1.261581e+00	1.267356e+00	1.273639e+00	1.279579e+00	1.285965e+00	1.292551e+00	1.298995e+00	1.306237e+00	1.312987e+00	1.320997e+00	1.329503e+00	1.339449e+00	1.349130e+00	1.365326e+00	1.394500e+00	1.375999e+00	1.452596e+00	1.422248e+00	1.423523e+00	1.425995e+00	1.426093e+00	1.427229e+00	1.428243e+00	1.427032e+00	1.428117e+00	1.427325e+00	1.425845e+00	1.425363e+00	1.423518e+00	1.422892e+00	1.420489e+00	1.419275e+00	1.417220e+00	1.414623e+00	1.412518e+00	1.409413e+00	1.407109e+00	1.403803e+00	1.401131e+00	1.397549e+00	1.394533e+00	1.390749e+00	1.387254e+00	1.383466e+00	1.379033e+00	1.374846e+00	1.369842e+00	1.365110e+00	1.359756e+00	1.354378e+00	1.348622e+00	1.342555e+00	1.336365e+00	1.329657e+00	1.323036e+00	1.316212e+00	1.308740e+00	1.301585e+00	1.293282e+00	1.285280e+00	1.277160e+00	1.268104e+00	1.259851e+00	1.249818e+00	1.241341e+00	1.231416e+00	1.222601e+00	1.215666e+00	1.207605e+00	1.203259e+00	1.196638e+00	1.194111e+00	1.193630e+00	1.193508e+00	1.197634e+00	1.200648e+00	1.207289e+00	1.211942e+00	1.218956e+00	1.227353e+00	1.233850e+00	1.241750e+00	1.247525e+00	1.254803e+00	1.260049e+00	1.266394e+00	1.272626e+00	1.278006e+00	1.284829e+00	1.290321e+00	1.297184e+00	1.302582e+00	1.309627e+00	1.315722e+00	1.322339e+00	1.330456e+00	1.337235e+00	1.346427e+00	1.353197e+00	1.362854e+00	1.371203e+00	1.380555e+00	1.393841e+00	1.403147e+00	1.417127e+00	1.433711e+00	1.447532e+00	1.467797e+00	1.490794e+00	1.518503e+00	1.549203e+00	1.582720e+00	1.631588e+00	1.671564e+00	
VECTORS Momentum double
3.466182e+00	2.082518e+02	0.0	1.424758e+02	2.548785e+02	0.0	2.168944e+02	2.113953e+02	0.0	2.492126e+02	1.694059e+02	0.0	2.629077e+02	1.384480e+02	0.0	2.733214e+02	1.206419e+02	0.0	2.810499e+02	1.088863e+02	0.0	2.853848e+02	9.860941e+01	0.0	2.890729e+02	8.931266e+01	0.0	2.925067e+02	8.372996e+01	0.0	2.953705e+02	7.881451e+01	0.0	2.975930e+02	7.334935e+01	0.0	3.007903e+02	7.032362e+01	0.0	3.018541e+02	6.594260e+01	0.0	3.032157e+02	6.205236e+01	0.0	3.054349e+02	5.945918e+01	0.0	3.060070e+02	5.604146e+01	0.0	3.073846e+02	5.367834e+01	0.0	3.079195e+02	5.069136e+01	0.0	3.089667e+02	4.850454e+01	0.0	3.099550e+02	4.594874e+01	0.0	3.101875e+02	4.331234e+01	0.0	3.112534e+02	4.139770e+01	0.0	3.117554e+02	3.902170e+01	0.0	3.123881e+02	3.716652e+01	0.0	3.126659e+02	3.489143e+01	0.0	3.136751e+02	3.320063e+01	0.0	3.141365e+02	3.118556e+01	0.0	3.143744e+02	2.937346e+01	0.0	3.144730e+02	2.751721e+01	0.0	3.144314e+02	2.552235e+01	0.0	3.146472e+02	2.397158e+01	0.0	3.147660e+02	2.211219e+01	0.0	3.150770e+02	2.061830e+01	0.0	3.149146e+02	1.877313e+01	0.0	3.151355e+02	1.730359e+01	0.0	3.150442e+02	1.557104e+01	0.0	3.146773e+02	1.369532e+01	0.0	3.148439e+02	1.227684e+01	0.0	3.148481e+02	1.051169e+01	0.0	3.149464e+02	9.102342e+00	0.0	3.145646e+02	7.281940e+00	0.0	3.144861e+02	5.693927e+00	0.0	3.142969e+02	4.063602e+00	0.0	3.138498e+02	2.244365e+00	0.0	3.137855e+02	8.019844e-01	0.0	3.133584e+02	-1.088156e+00	0.0	3.132122e+02	-2.580970e+00	0.0	3.125050e+02	-4.649378e+00	0.0	3.118329e+02	-6.714418e+00	0.0	3.115145e+02	-8.503472e+00	0.0	3.105078e+02	-1.075368e+01	0.0	3.101840e+02	-1.257415e+01	0.0	3.095265e+02	-1.483760e+01	0.0	3.082355e+02	-1.684718e+01	0.0	3.076348e+02	-1.867785e+01	0.0	3.076216e+02	-2.081891e+01	0.0	3.062234e+02	-2.324620e+01	0.0	3.110648e+02	-2.655863e+01	0.0	3.141348e+02	-2.653230e+01	0.0	3.142351e+02	-2.865312e+01	0.0	3.146233e+02	-3.085259e+01	0.0	3.157321e+02	-3.221141e+01	0.0	3.156198e+02	-3.376729e+01	0.0	3.154298e+02	-3.493760e+01	0.0	3.150510e+02	-3.641247e+01	0.0	3.146770e+02	-3.755890e+01	0.0	3.139194e+02	-3.885752e+01	0.0	3.133064e+02	-3.989179e+01	0.0	3.125551e+02	-4.105035e+01	0.0	3.115513e+02	-4.215156e+01	0.0	3.106718e+02	-4.300832e+01	0.0	3.096113e+02	-4.399142e+01	0.0	3.086289e+02	-4.473619e+01	0.0	3.074837e+02	-4.558905e+01	0.0	3.063826e+02	-4.625232e+01	0.0	3.051641e+02	-4.698046e+01	0.0	3.039541e+02	-4.754018e+01	0.0	3.026558e+02	-4.817032e+01	0.0	3.013944e+02	-4.870276e+01	0.0	3.001556e+02	-4.923888e+01	0.0	2.987650e+02	-4.979310e+01	0.0	2.974357e+02	-5.018185e+01	0.0	2.959652e+02	-5.069072e+01	0.0	2.945635e+02	-5.105547e+01	0.0	2.930060e+02	-5.152116e+01	0.0	2.914909e+02	-5.182221e+01	0.0	2.898519e+02	-5.223485e+01	0.0	2.881159e+02	-5.258480e+01	0.0	2.863647e+02	-5.285538e+01	0.0	2.843257e+02	-5.317899e+01	0.0	2.823844e+02	-5.330687e+01	0.0	2.801749e+02	-5.362434e+01	0.0	2.777471e+02	-5.387850e+01	0.0	2.748296e+02	-5.388809e+01	0.0	2.719348e+02	-5.391674e+01	0.0	2.670044e+02	-5.385538e+01	0.0	2.630554e+02	-5.354873e+01	0.0	2.590980e+02	-5.341248e+01	0.0	2.292400e+02	-2.377651e+01	0.0	2.826754e+02	-1.665909e+01	0.0	2.704658e+02	-1.173003e+01	0.0	2.690784e+02	-9.696347e+00	0.0	2.695632e+02	-7.634440e+00	0.0	2.694857e+02	-5.327844e+00	0.0	2.691734e+02	-3.370313e+00	0.0	2.688340e+02	-1.038886e+00	0.0	2.688892e+02	1.543828e+00	0.0	2.691128e+02	3.292925e+00	0.0	2.689352e+02	5.759261e+00	0.0	2.693633e+02	8.036677e+00	0.0	2.697894e+02	9.840472e+00	0.0	2.701312e+02	1.201952e+01	0.0	2.707111e+02	1.371259e+01	0.0	2.711532e+02	1.583281e+01	0.0	2.718856e+02	1.749896e+01	0.0	2.724306e+02	1.944933e+01	0.0	2.732164e+02	2.128306e+01	0.0	2.740817e+02	2.284577e+01	0.0	2.748837e+02	2.460077e+01	0.0	2.758553e+02	2.602375e+01	0.0	2.767554e+02	2.764482e+01	0.0	2.778130e+02	2.897364e+01	0.0	2.787674e+02	3.045669e+01	0.0	2.799296e+02	3.170119e+01	0.0	2.810036e+02	3.308281e+01	0.0	2.822252e+02	3.428078e+01	0.0	2.833732e+02	3.553574e+01	0.0	2.846217e+02	3.680296e+01	0.0	2.859684e+02	3.784545e+01	0.0	2.873087e+02	3.899403e+01	0.0	2.887763e+02	3.988232e+01	0.0	2.901989e+02	4.077979e+01	0.0	2.917956e+02	4.149532e+01	0.0	2.934120e+02	4.217990e+01	0.0	2.950847e+02	4.273369e+01	0.0	2.967541e+02	4.312515e+01	0.0	2.983952e+02	4.342933e+01	0.0	3.001641e+02	4.354867e+01	0.0	3.019081e+02	4.351830e+01	0.0	3.036429e+02	4.342930e+01	0.0	3.054272e+02	4.307345e+01	0.0	3.071920e+02	4.272438e+01	0.0	3.091247e+02	4.200320e+01	0.0	3.109062e+02	4.108552e+01	0.0	3.126783e+02	4.015584e+01	0.0	3.145646e+02	3.870102e+01	0.0	3.161496e+02	3.736010e+01	0.0	3.180743e+02	3.522032e+01	0.0	3.195683e+02	3.319771e+01	0.0	3.212413e+02	3.053364e+01	0.0	3.226115e+02	2.744330e+01	0.0	3.235857e+02	2.469717e+01	0.0	3.248175e+02	2.094795e+01	0.0	3.253640e+02	1.786478e+01	0.0	3.262350e+02	1.379117e+01	0.0	3.264670e+02	9.892964e+00	0.0	3.264195e+02	6.287766e+00	0.0	3.264005e+02	2.197723e+00	0.0	3.256044e+02	-9.569298e-01	0.0	3.251275e+02	-4.747258e+00	0.0	3.240492e+02	-7.517842e+00	0.0	3.232538e+02	-1.068795e+01	0.0	3.220556e+02	-1.352621e+01	0.0	3.206718e+02	-1.554387e+01	0.0	3.195941e+02	-1.793121e+01	0.0	3.181384e+02	-1.960821e+01	0.0	3.169919e+02	-2.175234e+01	0.0	3.156090e+02	-2.334621e+01	0.0	3.144417e+02	-2.536696e+01	0.0	3.130088e+02	-2.725000e+01	0.0	3.116045e+02	-2.894079e+01	0.0	3.102749e+02	-3.098252e+01	0.0	3.086198e+02	-3.263248e+01	0.0	3.070384e+02	-3.473247e+01	0.0	3.052943e+02	-3.638552e+01	0.0	3.036125e+02	-3.858542e+01	0.0	3.016377e+02	-4.045040e+01	0.0	2.994865e+02	-4.270123e+01	0.0	2.970994e+02	-4.508583e+01	0.0	2.945748e+02	-4.700524e+01	0.0	2.919193e+02	-4.966322e+01	0.0	2.888496e+02	-5.167076e+01	0.0	2.857780e+02	-5.463556e+01	0.0	2.822303e+02	-5.712635e+01	0.0	2.782231e+02	-6.020742e+01	0.0	2.731062e+02	-6.387983e+01	0.0	2.672516e+02	-6.630382e+01	0.0	2.610840e+02	-7.075179e+01	0.0	2.526204e+02	-7.457494e+01	0.0	2.429601e+02	-7.767882e+01	0.0	2.311167e+02	-8.292298e+01	0.0	2.145904e+02	-8.683369e+01	0.0	1.928885e+02	-8.872057e+01	0.0	1.628565e+02	-8.852068e+01	0.0	1.207481e+02	-8.193264e+01	0.0	5.429018e+01	-4.994064e+01	0.0	-2.858688e+01	5.470900e+01	0.0	
SCALARS Energy double 1
LOOKUP_TABLE default
3.413215e+05	2.748429e+05	2.331694e+05	2.121329e+05	2.012950e+05	1.997075e+05	2.002675e+05	1.994383e+05	1.986745e+05	1.997644e+05	2.008144e+05	2.013446e+05	2.029605e+05	2.026536e+05	2.025547e+05	2.033521e+05	2.032817e+05	2.040230e+05	2.042467e+05	2.049277e+05	2.051093e+05	2.049702e+05	2.054391e+05	2.055012e+05	2.058135e+05	2.057513e+05	2.061113e+05	2.059437e+05	2.057102e+05	2.053285e+05	2.048448e+05	2.046441e+05	2.042446e+05	2.040855e+05	2.035463e+05	2.032916e+05	2.027263e+05	2.020522e+05	2.018106e+05	2.013535e+05	2.011073e+05	2.004343e+05	2.000126e+05	1.994901e+05	1.987712e+05	1.984009e+05	1.977301e+05	1.972801e+05	1.962806e+05	1.952883e+05	1.945540e+05	1.933554e+05	1.926647e+05	1.917015e+05	1.905271e+05	1.890579e+05	1.875560e+05	1.890597e+05	2.053769e+05	2.423519e+05	2.605323e+05	2.618257e+05	2.605019e+05	2.605159e+05	2.614791e+05	2.622242e+05	2.631236e+05	2.639039e+05	2.650006e+05	2.660168e+05	2.671123e+05	2.683984e+05	2.695216e+05	2.707949e+05	2.719358e+05	2.732025e+05	2.743702e+05	2.755998e+05	2.767205e+05	2.779074e+05	2.790800e+05	2.802075e+05	2.814238e+05	2.825119e+05	2.837073e+05	2.848157e+05	2.860332e+05	2.871741e+05	2.884034e+05	2.896751e+05	2.909019e+05	2.923026e+05	2.935885e+05	2.951283e+05	2.967442e+05	2.986702e+05	3.004286e+05	3.036253e+05	3.095811e+05	3.039140e+05	3.228959e+05	3.157906e+05	3.159810e+05	3.165270e+05	3.165407e+05	3.167625e+05	3.169582e+05	3.167048e+05	3.169473e+05	3.167723e+05	3.164852e+05	3.164093e+05	3.160420e+05	3.159454e+05	3.154671e+05	3.152557e+05	3.148582e+05	3.143596e+05	3.139693e+05	3.133659e+05	3.129405e+05	3.123012e+05	3.118044e+05	3.111114e+05	3.105491e+05	3.098216e+05	3.091637e+05	3.084409e+05	3.075896e+05	3.067956e+05	3.058313e+05	3.049313e+05	3.038995e+05	3.028732e+05	3.017705e+05	3.006066e+05	2.994171e+05	2.981188e+05	2.968472e+05	2.955326e+05	2.940836e+05	2.927044e+05	2.910870e+05	2.895435e+05	2.879664e+05	2.861969e+05	2.846016e+05	2.826199e+05	2.809833e+05	2.790205e+05	2.773006e+05	2.759488e+05	2.743405e+05	2.735174e+05	2.721794e+05	2.717105e+05	2.716185e+05	2.715827e+05	2.724278e+05	2.729872e+05	2.743239e+05	2.752065e+05	2.766026e+05	2.782577e+05	2.795068e+05	2.810740e+05	2.821726e+05	2.836106e+05	2.846094e+05	2.858568e+05	2.870634e+05	2.880959e+05	2.894391e+05	2.904824e+05	2.918225e+05	2.928454e+05	2.942238e+05	2.953844e+05	2.966494e+05	2.982189e+05	2.994992e+05	3.012897e+05	3.025447e+05	3.044224e+05	3.059980e+05	3.077725e+05	3.103314e+05	3.120061e+05	3.146947e+05	3.178279e+05	3.203332e+05	3.241748e+05	3.284293e+05	3.335437e+05	3.391289e+05	3.451509e+05	3.543030e+05	3.628215e+05	
SCALARS Pressure double 1
LOOKUP_TABLE default
1.309511e+05	9.597562e+04	7.520536e+04	6.495408e+04	6.000127e+04	5.892727e+04	5.881577e+04	5.829659e+04	5.779732e+04	5.810824e+04	5.843699e+04	5.859329e+04	5.907246e+04	5.889889e+04	5.876375e+04	5.892420e+04	5.889821e+04	5.914361e+04	5.925791e+04	5.951107e+04	5.951443e+04	5.946353e+04	5.958685e+04	5.958929e+04	5.969154e+04	5.965610e+04	5.971795e+04	5.958897e+04	5.945486e+04	5.926266e+04	5.903819e+04	5.891629e+04	5.870580e+04	5.858731e+04	5.834328e+04	5.818498e+04	5.791100e+04	5.762232e+04	5.747491e+04	5.723855e+04	5.709702e+04	5.680390e+04	5.659429e+04	5.634684e+04	5.603404e+04	5.584495e+04	5.555115e+04	5.532923e+04	5.489851e+04	5.446292e+04	5.410733e+04	5.360816e+04	5.327193e+04	5.283631e+04	5.239099e+04	5.166281e+04	5.080542e+04	5.185268e+04	5.983560e+04	7.810943e+04	8.680730e+04	8.735105e+04	8.657931e+04	8.658011e+04	8.704449e+04	8.742205e+04	8.787521e+04	8.831236e+04	8.888438e+04	8.943041e+04	9.004059e+04	9.072759e+04	9.135376e+04	9.204263e+04	9.268319e+04	9.337786e+04	9.403535e+04	9.472059e+04	9.536101e+04	9.602710e+04	9.668167e+04	9.732801e+04	9.800893e+04	9.864071e+04	9.931429e+04	9.995908e+04	1.006492e+05	1.013116e+05	1.020210e+05	1.027490e+05	1.034786e+05	1.042767e+05	1.050402e+05	1.059322e+05	1.068985e+05	1.079924e+05	1.091730e+05	1.108936e+05	1.137952e+05	1.138452e+05	1.181184e+05	1.160101e+05	1.162068e+05	1.164112e+05	1.164275e+05	1.165503e+05	1.166627e+05	1.165485e+05	1.166351e+05	1.165698e+05	1.164077e+05	1.163371e+05	1.161443e+05	1.160509e+05	1.157996e+05	1.156423e+05	1.154161e+05	1.151262e+05	1.148774e+05	1.145381e+05	1.142640e+05	1.138993e+05	1.135851e+05	1.131907e+05	1.128373e+05	1.124158e+05	1.120128e+05	1.115852e+05	1.110907e+05	1.106136e+05	1.100586e+05	1.095219e+05	1.089284e+05	1.083218e+05	1.076771e+05	1.069991e+05	1.063090e+05	1.055710e+05	1.048322e+05	1.040751e+05	1.032555e+05	1.024625e+05	1.015591e+05	1.006732e+05	9.978509e+04	9.880492e+04	9.789451e+04	9.683020e+04	9.589315e+04	9.484277e+04	9.388634e+04	9.313281e+04	9.229379e+04	9.179725e+04	9.112523e+04	9.082666e+04	9.077275e+04	9.077158e+04	9.117900e+04	9.153457e+04	9.221422e+04	9.274439e+04	9.347761e+04	9.437189e+04	9.509534e+04	9.592676e+04	9.658133e+04	9.735293e+04	9.794688e+04	9.862611e+04	9.931146e+04	9.991216e+04	1.006405e+05	1.012648e+05	1.020080e+05	1.026241e+05	1.033848e+05	1.040746e+05	1.048183e+05	1.057132e+05	1.064910e+05	1.074913e+05	1.082919e+05	1.093459e+05	1.103051e+05	1.113698e+05	1.128447e+05	1.139954e+05	1.155513e+05	1.174530e+05	1.191437e+05	1.214547e+05	1.241824e+05	1.274804e+05	1.312160e+05	1.353697e+05	1.410542e+05	1.446727e+05	
SCALARS Temperature double 1
LOOKUP_TABLE default
2.932612e+02	2.737397e+02	2.579338e+02	2.479298e+02	2.428654e+02	2.409726e+02	2.401003e+02	2.392259e+02	2.383452e+02	2.383257e+02	2.383993e+02	2.384057e+02	2.384336e+02	2.381697e+02	2.378360e+02	2.376145e+02	2.375970e+02	2.376925e+02	2.378463e+02	2.380186e+02	2.378657e+02	2.378330e+02	2.377937e+02	2.377456e+02	2.377817e+02	2.377279e+02	2.375967e+02	2.373484e+02	2.371425e+02	2.368886e+02	2.366246e+02	2.364251e+02	2.361269e+02	2.358994e+02	2.356194e+02	2.353512e+02	2.349973e+02	2.346927e+02	2.344436e+02	2.341056e+02	2.338774e+02	2.335507e+02	2.332613e+02	2.329403e+02	2.325851e+02	2.323102e+02	2.319681e+02	2.316560e+02	2.311614e+02	2.306384e+02	2.301368e+02	2.295812e+02	2.290939e+02	2.285203e+02	2.281052e+02	2.269880e+02	2.254303e+02	2.276409e+02	2.386184e+02	2.577900e+02	2.643263e+02	2.645825e+02	2.638283e+02	2.638195e+02	2.641480e+02	2.644420e+02	2.647885e+02	2.651859e+02	2.656450e+02	2.661022e+02	2.666383e+02	2.671965e+02	2.677365e+02	2.682966e+02	2.688438e+02	2.694096e+02	2.699624e+02	2.705236e+02	2.710635e+02	2.716043e+02	2.721260e+02	2.726581e+02	2.731928e+02	2.737131e+02	2.742375e+02	2.747603e+02	2.752924e+02	2.758180e+02	2.763701e+02	2.769237e+02	2.775067e+02	2.780965e+02	2.786926e+02	2.793551e+02	2.800998e+02	2.808647e+02	2.818979e+02	2.829439e+02	2.842731e+02	2.882219e+02	2.832717e+02	2.841521e+02	2.843789e+02	2.843854e+02	2.844054e+02	2.844789e+02	2.845511e+02	2.845136e+02	2.845090e+02	2.845073e+02	2.844065e+02	2.843303e+02	2.842270e+02	2.841234e+02	2.839877e+02	2.838445e+02	2.837000e+02	2.835068e+02	2.833158e+02	2.831014e+02	2.828863e+02	2.826477e+02	2.824054e+02	2.821461e+02	2.818733e+02	2.815846e+02	2.812819e+02	2.809757e+02	2.806295e+02	2.802753e+02	2.798877e+02	2.794884e+02	2.790682e+02	2.786161e+02	2.781400e+02	2.776375e+02	2.771249e+02	2.765891e+02	2.760283e+02	2.754555e+02	2.748464e+02	2.742349e+02	2.735621e+02	2.728642e+02	2.721764e+02	2.714277e+02	2.706884e+02	2.698947e+02	2.691082e+02	2.683056e+02	2.675150e+02	2.668816e+02	2.662427e+02	2.657669e+02	2.652809e+02	2.649715e+02	2.649208e+02	2.649445e+02	2.652169e+02	2.655828e+02	2.660830e+02	2.665853e+02	2.671469e+02	2.678574e+02	2.684895e+02	2.691138e+02	2.696959e+02	2.702738e+02	2.707906e+02	2.713021e+02	2.718497e+02	2.723428e+02	2.728713e+02	2.733951e+02	2.739450e+02	2.744573e+02	2.750041e+02	2.755566e+02	2.761371e+02	2.767955e+02	2.774188e+02	2.781128e+02	2.787822e+02	2.795011e+02	2.802362e+02	2.810246e+02	2.820319e+02	2.830182e+02	2.840509e+02	2.853861e+02	2.867301e+02	2.882563e+02	2.901834e+02	2.924544e+02	2.950588e+02	2.979530e+02	3.011659e+02	3.015045e+02	
SCALARS Mach double 1
LOOKUP_TABLE default
3.900211e-01	7.207880e-01	9.261567e-01	1.046006e+00	1.105083e+00	1.126975e+00	1.137037e+00	1.147106e+00	1.157235e+00	1.157459e+00	1.156612e+00	1.156540e+00	1.156218e+00	1.159251e+00	1.163083e+00	1.165626e+00	1.165827e+00	1.164732e+00	1.162965e+00	1.160986e+00	1.162742e+00	1.163117e+00	1.163570e+00	1.164122e+00	1.163708e+00	1.164324e+00	1.165831e+00	1.168681e+00	1.171043e+00	1.173955e+00	1.176982e+00	1.179269e+00	1.182686e+00	1.185292e+00	1.188498e+00	1.191569e+00	1.195618e+00	1.199102e+00	1.201951e+00	1.205816e+00	1.208424e+00	1.212158e+00	1.215464e+00	1.219130e+00	1.223187e+00	1.226325e+00	1.230229e+00	1.233790e+00	1.239433e+00	1.245398e+00	1.251117e+00	1.257451e+00	1.263005e+00	1.269542e+00	1.274272e+00	1.287000e+00	1.304746e+00	1.279561e+00	1.154094e+00	9.279187e-01	8.462280e-01	8.429508e-01	8.525789e-01	8.526911e-01	8.485038e-01	8.447483e-01	8.403121e-01	8.352079e-01	8.292921e-01	8.233798e-01	8.164174e-01	8.091346e-01	8.020567e-01	7.946780e-01	7.874331e-01	7.799031e-01	7.725050e-01	7.649535e-01	7.576466e-01	7.502875e-01	7.431465e-01	7.358195e-01	7.284128e-01	7.211596e-01	7.138039e-01	7.064220e-01	6.988592e-01	6.913356e-01	6.833754e-01	6.753320e-01	6.667905e-01	6.580752e-01	6.491865e-01	6.392073e-01	6.278576e-01	6.160472e-01	5.998317e-01	5.830808e-01	5.612628e-01	4.921342e-01	5.777576e-01	5.632753e-01	5.594980e-01	5.593894e-01	5.590554e-01	5.578259e-01	5.566167e-01	5.572451e-01	5.573221e-01	5.573511e-01	5.590371e-01	5.603091e-01	5.620302e-01	5.637521e-01	5.660011e-01	5.683663e-01	5.707475e-01	5.739168e-01	5.770389e-01	5.805278e-01	5.840133e-01	5.878607e-01	5.917491e-01	5.958893e-01	6.002211e-01	6.047821e-01	6.095374e-01	6.143212e-01	6.196959e-01	6.251628e-01	6.311044e-01	6.371858e-01	6.435420e-01	6.503309e-01	6.574289e-01	6.648651e-01	6.723931e-01	6.802013e-01	6.883113e-01	6.965302e-01	7.052014e-01	7.138407e-01	7.232694e-01	7.329701e-01	7.424533e-01	7.526955e-01	7.627275e-01	7.734126e-01	7.839196e-01	7.945586e-01	8.049645e-01	8.132478e-01	8.215571e-01	8.277178e-01	8.339852e-01	8.379639e-01	8.386137e-01	8.383105e-01	8.348091e-01	8.300949e-01	8.236286e-01	8.171073e-01	8.097839e-01	8.004672e-01	7.921285e-01	7.838450e-01	7.760760e-01	7.683199e-01	7.613448e-01	7.544045e-01	7.469336e-01	7.401662e-01	7.328719e-01	7.255977e-01	7.179131e-01	7.107062e-01	7.029633e-01	6.950845e-01	6.867420e-01	6.772002e-01	6.680842e-01	6.578340e-01	6.478418e-01	6.369921e-01	6.257632e-01	6.135591e-01	5.977050e-01	5.818774e-01	5.649535e-01	5.424823e-01	5.191052e-01	4.914989e-01	4.547111e-01	4.078359e-01	3.474588e-01	2.664357e-01	1.299561e-01	1.060864e-01	
SCALARS Pressure_Coefficient double 1
LOOKUP_TABLE default