# vtk DataFile Version 3.0
vtk output
ASCII
DATASET UNSTRUCTURED_GRID
POINTS 7950 double
1.488382e-03	4.706598e-03	0.0	4.832710e-03	8.816269e-03	0.0	9.332381e-03	1.227942e-02	0.0	1.459947e-02	1.527381e-02	0.0	2.046480e-02	1.796063e-02	0.0	2.685868e-02	2.045327e-02	0.0	3.375781e-02	2.282050e-02	0.0	4.115893e-02	2.510490e-02	0.0	4.906832e-02	2.733298e-02	0.0	5.750637e-02	2.948341e-02	0.0	6.648155e-02	3.157821e-02	0.0	7.600204e-02	3.365064e-02	0.0	8.608376e-02	3.570120e-02	0.0	9.674658e-02	3.770157e-02	0.0	1.080030e-01	3.964876e-02	0.0	1.198593e-01	4.157206e-02	0.0	1.323260e-01	4.346606e-02	0.0	1.454133e-01	4.531126e-02	0.0	1.591291e-01	4.707811e-02	0.0	1.734703e-01	4.879669e-02	0.0	1.884364e-01	5.045956e-02	0.0	2.040228e-01	5.205935e-02	0.0	2.202229e-01	5.356754e-02	0.0	2.370232e-01	5.497928e-02	0.0	2.544051e-01	5.630481e-02	0.0	2.723473e-01	5.753544e-02	0.0	2.908239e-01	5.866321e-02	0.0	3.098041e-01	5.968061e-02	0.0	3.292541e-01	6.055640e-02	0.0	3.491335e-01	6.129139e-02	0.0	3.693981e-01	6.188798e-02	0.0	3.900005e-01	6.233886e-02	0.0	4.108896e-01	6.263769e-02	0.0	4.320112e-01	6.277790e-02	0.0	4.533088e-01	6.275089e-02	0.0	4.747234e-01	6.253740e-02	0.0	4.961940e-01	6.210672e-02	0.0	5.176595e-01	6.147116e-02	0.0	5.390581e-01	6.062497e-02	0.0	5.603291e-01	5.956702e-02	0.0	5.814132e-01	5.830346e-02	0.0	6.022537e-01	5.684948e-02	0.0	6.227973e-01	5.522870e-02	0.0	6.429925e-01	5.344757e-02	0.0	6.627940e-01	5.154226e-02	0.0	6.821608e-01	4.954456e-02	0.0	7.010550e-01	4.747278e-02	0.0	7.194431e-01	4.534361e-02	0.0	7.372961e-01	4.317224e-02	0.0	7.545873e-01	4.095668e-02	0.0	7.712980e-01	3.872115e-02	0.0	7.874142e-01	3.648888e-02	0.0	8.029248e-01	3.427179e-02	0.0	8.178230e-01	3.208070e-02	0.0	8.321026e-01	2.990672e-02	0.0	8.457668e-01	2.777752e-02	0.0	8.588196e-01	2.570222e-02	0.0	8.712673e-01	2.368549e-02	0.0	8.831163e-01	2.171620e-02	0.0	8.943801e-01	1.981102e-02	0.0	9.050723e-01	1.797450e-02	0.0	9.152074e-01	1.620510e-02	0.0	9.248001e-01	1.449455e-02	0.0	9.338700e-01	1.285570e-02	0.0	9.424354e-01	1.128754e-02	0.0	9.505142e-01	9.783649e-03	0.0	9.581264e-01	8.345231e-03	0.0	9.652921e-01	6.974122e-03	0.0	9.720311e-01	5.667375e-03	0.0	9.783627e-01	4.422095e-03	0.0	9.843062e-01	3.233931e-03	0.0	9.898816e-01	2.104762e-03	0.0	9.951070e-01	1.028680e-03	0.0	0.000000e+00	0.000000e+00	0.0	1.000000e+00	0.000000e+00	0.0	9.950075e-01	2.737954e-04	0.0	9.896787e-01	5.264900e-04	0.0	9.839952e-01	7.526843e-04	0.0	9.779380e-01	9.472321e-04	0.0	9.714878e-01	1.095541e-03	0.0	9.646254e-01	1.181595e-03	0.0	9.573317e-01	1.205049e-03	0.0	9.495874e-01	1.161216e-03	0.0	9.413735e-01	1.039131e-03	0.0	9.326724e-01	8.007249e-04	0.0	9.234656e-01	4.731941e-04	0.0	9.137355e-01	4.988505e-05	0.0	9.034670e-01	-5.001965e-04	0.0	8.926462e-01	-1.188527e-03	0.0	8.812580e-01	-1.996928e-03	0.0	8.692906e-01	-2.933020e-03	0.0	8.567373e-01	-4.034577e-03	0.0	8.435894e-01	-5.286028e-03	0.0	8.298413e-01	-6.680373e-03	0.0	8.154911e-01	-8.222477e-03	0.0	8.005429e-01	-9.935418e-03	0.0	7.850006e-01	-1.181038e-02	0.0	7.688718e-01	-1.383650e-02	0.0	7.521691e-01	-1.601431e-02	0.0	7.349092e-01	-1.834200e-02	0.0	7.171144e-01	-2.082369e-02	0.0	6.988063e-01	-2.342839e-02	0.0	6.800124e-01	-2.613726e-02	0.0	6.607650e-01	-2.893223e-02	0.0	6.411001e-01	-3.179213e-02	0.0	6.210573e-01	-3.469265e-02	0.0	6.006784e-01	-3.759652e-02	0.0	5.800098e-01	-4.047531e-02	0.0	5.591009e-01	-4.329744e-02	0.0	5.380032e-01	-4.602566e-02	0.0	5.167699e-01	-4.861902e-02	0.0	4.954559e-01	-5.103271e-02	0.0	4.741171e-01	-5.321794e-02	0.0	4.528084e-01	-5.509675e-02	0.0	4.315904e-01	-5.662865e-02	0.0	4.105255e-01	-5.780846e-02	0.0	3.896744e-01	-5.862431e-02	0.0	3.690956e-01	-5.907829e-02	0.0	3.488451e-01	-5.918697e-02	0.0	3.289747e-01	-5.897985e-02	0.0	3.095318e-01	-5.848140e-02	0.0	2.905590e-01	-5.772329e-02	0.0	2.720902e-01	-5.679206e-02	0.0	2.541555e-01	-5.571930e-02	0.0	2.367805e-01	-5.452781e-02	0.0	2.199862e-01	-5.323450e-02	0.0	2.037907e-01	-5.183571e-02	0.0	1.882081e-01	-5.033275e-02	0.0	1.732448e-01	-4.875978e-02	0.0	1.589050e-01	-4.712607e-02	0.0	1.451895e-01	-4.544028e-02	0.0	1.321007e-01	-4.367377e-02	0.0	1.196325e-01	-4.184682e-02	0.0	1.077746e-01	-3.998260e-02	0.0	9.651626e-02	-3.808674e-02	0.0	8.585080e-02	-3.613343e-02	0.0	7.576833e-02	-3.411312e-02	0.0	6.624899e-02	-3.205742e-02	0.0	5.727762e-02	-2.996424e-02	0.0	4.884611e-02	-2.780173e-02	0.0	4.095245e-02	-2.552874e-02	0.0	3.357418e-02	-2.318008e-02	0.0	2.670496e-02	-2.073383e-02	0.0	2.034739e-02	-1.815454e-02	0.0	1.452265e-02	-1.538387e-02	0.0	9.293280e-03	-1.232597e-02	0.0	4.821691e-03	-8.826948e-03	0.0	1.489344e-03	-4.706710e-03	0.0	1.005000e+00	0.000000e+00	0.0	1.010089e+00	0.000000e+00	0.0	1.015358e+00	0.000000e+00	0.0	1.020901e+00	0.000000e+00	0.0	1.026816e+00	0.000000e+00	0.0	1.033210e+00	0.000000e+00	0.0	1.040196e+00	0.000000e+00	0.0	1.047898e+00	0.000000e+00	0.0	1.056454e+00	0.000000e+00	0.0	1.066017e+00	0.000000e+00	0.0	1.076756e+00	0.000000e+00	0.0	1.088865e+00	0.000000e+00	0.0	1.102557e+00	0.000000e+00	0.0	1.118078e+00	0.000000e+00	0.0	1.135704e+00	0.000000e+00	0.0	1.155749e+00	0.000000e+00	0.0	1.178572e+00	0.000000e+00	0.0	1.204577e+00	0.000000e+00	0.0	1.234231e+00	0.000000e+00	0.0	1.268060e+00	0.000000e+00	0.0	1.306668e+00	0.000000e+00	0.0	1.350743e+00	0.000000e+00	0.0	1.401072e+00	0.000000e+00	0.0	1.458551e+00	0.000000e+00	0.0	1.524206e+00	0.000000e+00	0.0	1.599206e+00	0.000000e+00	0.0	1.684890e+00	0.000000e+00	0.0	1.782783e+00	0.000000e+00	0.0	1.894633e+00	0.000000e+00	0.0	2.022432e+00	0.000000e+00	0.0	2.168460e+00	0.000000e+00	0.0	2.335320e+00	0.000000e+00	0.0	2.525986e+00	0.000000e+00	0.0	2.743859e+00	0.000000e+00	0.0	2.992821e+00	0.000000e+00	0.0	3.277313e+00	0.000000e+00	0.0	3.602406e+00	0.000000e+00	0.0	3.973895e+00	0.000000e+00	0.0	4.398404e+00	0.000000e+00	0.0	4.883502e+00	0.000000e+00	0.0	5.437836e+00	0.000000e+00	0.0	6.071290e+00	0.000000e+00	0.0	6.795157e+00	0.000000e+00	0.0	7.622343e+00	0.000000e+00	0.0	8.567595e+00	0.000000e+00	0.0	9.647766e+00	0.000000e+00	0.0	1.088211e+01	0.000000e+00	0.0	1.229264e+01	0.000000e+00	0.0	1.390450e+01	0.000000e+00	0.0	1.574643e+01	0.000000e+00	0.0	1.785126e+01	0.000000e+00	0.0	2.025653e+01	0.000000e+00	0.0	2.300510e+01	0.000000e+00	0.0	2.614600e+01	0.000000e+00	0.0	2.973521e+01	0.000000e+00	0.0	3.383672e+01	0.000000e+00	0.0	3.852366e+01	0.000000e+00	0.0	4.387959e+01	0.000000e+00	0.0	5.000000e+01	0.000000e+00	0.0	5.000000e+01	1.000000e-03	0.0	5.000000e+01	2.133064e-03	0.0	5.000000e+01	3.549964e-03	0.0	5.000000e+01	5.439237e-03	0.0	5.000000e+01	8.052278e-03	0.0	5.000000e+01	1.173679e-02	0.0	5.000000e+01	1.698305e-02	0.0	5.000000e+01	2.448915e-02	0.0	5.000000e+01	3.525389e-02	0.0	5.000000e+01	5.070966e-02	0.0	5.000000e+01	7.291309e-02	0.0	5.000000e+01	1.048186e-01	0.0	5.000000e+01	1.506718e-01	0.0	5.000000e+01	2.165741e-01	0.0	5.000000e+01	3.112946e-01	0.0	5.000000e+01	4.474373e-01	0.0	5.000000e+01	6.431181e-01	0.0	5.000000e+01	9.243749e-01	0.0	5.000000e+01	1.328633e+00	0.0	5.000000e+01	1.909685e+00	0.0	5.000000e+01	2.744848e+00	0.0	5.000000e+01	3.945253e+00	0.0	5.000000e+01	5.670630e+00	0.0	5.000000e+01	8.150566e+00	0.0	5.000000e+01	1.171505e+01	0.0	5.000000e+01	1.683839e+01	0.0	5.000000e+01	2.420233e+01	0.0	5.000000e+01	3.478673e+01	0.0	5.000000e+01	5.000000e+01	0.0	5.000000e+01	-1.000000e-03	0.0	5.000000e+01	-2.133064e-03	0.0	5.000000e+01	-3.549964e-03	0.0	5.000000e+01	-5.439237e-03	0.0	5.000000e+01	-8.052278e-03	0.0	5.000000e+01	-1.173679e-02	0.0	5.000000e+01	-1.698305e-02	0.0	5.000000e+01	-2.448915e-02	0.0	5.000000e+01	-3.525389e-02	0.0	5.000000e+01	-5.070966e-02	0.0	5.000000e+01	-7.291309e-02	0.0	5.000000e+01	-1.048186e-01	0.0	5.000000e+01	-1.506718e-01	0.0	5.000000e+01	-2.165741e-01	0.0	5.000000e+01	-3.112946e-01	0.0	5.000000e+01	-4.474373e-01	0.0	5.000000e+01	-6.431181e-01	0.0	5.000000e+01	-9.243749e-01	0.0	5.000000e+01	-1.328633e+00	0.0	5.000000e+01	-1.909685e+00	0.0	5.000000e+01	-2.744848e+00	0.0	5.000000e+01	-3.945253e+00	0.0	5.000000e+01	-5.670630e+00	0.0	5.000000e+01	-8.150566e+00	0.0	5.000000e+01	-1.171505e+01	0.0	5.000000e+01	-1.683839e+01	0.0	5.000000e+01	-2.420233e+01	0.0	5.000000e+01	-3.478673e+01	0.0	5.000000e+01	-5.000000e+01	0.0	1.000000e+00	1.000000e-03	0.0	1.000000e+00	2.133064e-03	0.0	1.000000e+00	3.549964e-03	0.0	1.000000e+00	5.439237e-03	0.0	1.000000e+00	8.052278e-03	0.0	1.000000e+00	1.173679e-02	0.0	1.000000e+00	1.698305e-02	0.0	1.000000e+00	2.448915e-02	0.0	1.000000e+00	3.525389e-02	0.0	1.000000e+00	5.070966e-02	0.0	1.000000e+00	7.291309e-02	0.0	1.000000e+00	1.048186e-01	0.0	1.000000e+00	1.506718e-01	0.0	1.000000e+00	2.165741e-01	0.0	1.000000e+00	3.112946e-01	0.0	1.000000e+00	4.474373e-01	0.0	1.000000e+00	6.431181e-01	0.0	1.000000e+00	9.243749e-01	0.0	1.000000e+00	1.328633e+00	0.0	1.000000e+00	1.909685e+00	0.0	1.000000e+00	2.744848e+00	0.0	1.000000e+00	3.945253e+00	0.0	1.000000e+00	5.670630e+00	0.0	1.000000e+00	8.150566e+00	0.0	1.000000e+00	1.171505e+01	0.0	1.000000e+00	1.683839e+01	0.0	1.000000e+00	2.420233e+01	0.0	1.000000e+00	3.478673e+01	0.0	1.000000e+00	5.000000e+01	0.0	1.000000e+00	-1.000000e-03	0.0	1.000000e+00	-2.133064e-03	0.0	1.000000e+00	-3.549964e-03	0.0	1.000000e+00	-5.439237e-03	0.0	1.000000e+00	-8.052278e-03	0.0	1.000000e+00	-1.173679e-02	0.0	1.000000e+00	-1.698305e-02	0.0	1.000000e+00	-2.448915e-02	0.0	1.000000e+00	-3.525389e-02	0.0	1.000000e+00	-5.070966e-02	0.0	1.000000e+00	-7.291309e-02	0.0	1.000000e+00	-1.048186e-01	0.0	1.000000e+00	-1.506718e-01	0.0	1.000000e+00	-2.165741e-01	0.0	1.000000e+00	-3.112946e-01	0.0	1.000000e+00	-4.474373e-01	0.0	1.000000e+00	-6.431181e-01	0.0	1.000000e+00	-9.243749e-01	0.0	1.000000e+00	-1.328633e+00	0.0	1.000000e+00	-1.909685e+00	0.0	1.000000e+00	-2.744848e+00	0.0	1.000000e+00	-3.945253e+00	0.0	1.000000e+00	-5.670630e+00	0.0	1.000000e+00	-8.150566e+00	0.0	1.000000e+00	-1.171505e+01	0.0	1.000000e+00	-1.683839e+01	0.0	1.000000e+00	-2.420233e+01	0.0	1.000000e+00	-3.478673e+01	0.0	1.000000e+00	-5.000000e+01	0.0	1.005000e+00	5.000000e+01	0.0	1.010089e+00	5.000000e+01	0.0	1.015358e+00	5.000000e+01	0.0	1.020901e+00
[...]
POINT_DATA 7950

SCALARS Density double 1
LOOKUP_TABLE default
1.258740e+00	1.063439e+00	9.494535e-01	8.936409e-01	8.694927e-01	8.610350e-01	8.594425e-01	8.596588e-01	8.574022e-01	8.548759e-01	8.563692e-01	8.591699e-01	8.589251e-01	8.568890e-01	8.570485e-01	8.585593e-01	8.581924e-01	8.554316e-01	8.534733e-01	8.531209e-01	8.522988e-01	8.499977e-01	8.468405e-01	8.445328e-01	8.428461e-01	8.409952e-01	8.387599e-01	8.353103e-01	8.312162e-01	8.276065e-01	8.241975e-01	8.205894e-01	8.168650e-01	8.126247e-01	8.073880e-01	8.001023e-01	7.928840e-01	7.857590e-01	7.793833e-01	7.667304e-01	7.644201e-01	7.736151e-01	9.712167e-01	1.178032e+00	1.176484e+00	1.148783e+00	1.143414e+00	1.150889e+00	1.157594e+00	1.162794e+00	1.169430e+00	1.176967e+00	1.184414e+00	1.191505e+00	1.199072e+00	1.207128e+00	1.214603e+00	1.221494e+00	1.228658e+00	1.236232e+00	1.243356e+00	1.250153e+00	1.257363e+00	1.264915e+00	1.272039e+00	1.279397e+00	1.287211e+00	1.295400e+00	1.303655e+00	1.313236e+00	1.323515e+00	1.339621e+00	1.348185e+00	1.532231e+00	1.338561e+00	1.438420e+00	1.418034e+00	1.420438e+00	1.420899e+00	1.422887e+00	1.422956e+00	1.423509e+00	1.424347e+00	1.423788e+00	1.422006e+00	1.421208e+00	1.420136e+00	1.417705e+00	1.414820e+00	1.412678e+00	1.409782e+00	1.405772e+00	1.401723e+00	1.397912e+00	1.393630e+00	1.388466e+00	1.383006e+00	1.377322e+00	1.371341e+00	1.364419e+00	1.356605e+00	1.348396e+00	1.339683e+00	1.330404e+00	1.320349e+00	1.309706e+00	1.298606e+00	1.286862e+00	1.274473e+00	1.261465e+00	1.247652e+00	1.232797e+00	1.218473e+00	1.206767e+00	1.197898e+00	1.192103e+00	1.189949e+00	1.191348e+00	1.195706e+00	1.202899e+00	1.213319e+00	1.224826e+00	1.235451e+00	1.245215e+00	1.253758e+00	1.261787e+00	1.270658e+00	1.279953e+00	1.288736e+00	1.296602e+00	1.304992e+00	1.315071e+00	1.325397e+00	1.334912e+00	1.344546e+00	1.356422e+00	1.369509e+00	1.382051e+00	1.395003e+00	1.411588e+00	1.431043e+00	1.451956e+00	1.476002e+00	1.503952e+00	1.538011e+00	1.582029e+00	1.640700e+00	1.658826e+00	1.337227e+00	1.337276e+00	1.336177e+00	1.333599e+00	1.331267e+00	1.329257e+00	1.327445e+00	1.325812e+00	1.324318e+00	1.322914e+00	1.321557e+00	1.320206e+00	1.318823e+00	1.317376e+00	1.315838e+00	1.314191e+00	1.312427e+00	1.310542e+00	1.308543e+00	1.306439e+00	1.304243e+00	1.301961e+00	1.299593e+00	1.297127e+00	1.294541e+00	1.291809e+00	1.288932e+00	1.285995e+00	1.283224e+00	1.281024e+00	1.279901e+00	1.280270e+00	1.282194e+00	1.285225e+00	1.288515e+00	1.291216e+00	1.292893e+00	1.293628e+00	1.293781e+00	1.293685e+00	1.293509e+00	1.293304e+00	1.293085e+00	1.292874e+00	1.292693e+00	1.292553e+00	1.292455e+00	1.292389e+00	1.292349e+00	1.292323e+00	1.292307e+00	1.292295e+00	1.292284e+00	1.292273e+00	1.292260e+00	1.292239e+00	1.292218e+00	1.292148e+00	1.292063e+00	1.292063e+00	1.292062e+00	1.292062e+00	1.292062e+00	1.292062e+00	1.292064e+00	1.292066e+00	1.292066e+00	1.292060e+00	1.292047e+00	1.292034e+00	1.292039e+00	1.292080e+00	1.292153e+00	1.292205e+00	1.292136e+00	1.291870e+00	1.291472e+00	1.291168e+00	1.291196e+00	1.291555e+00	1.291980e+00	1.292211e+00	1.292248e+00	1.292226e+00	1.292230e+00	1.292194e+00	1.292133e+00	1.291716e+00	1.292063e+00	1.292063e+00	1.292063e+00	1.292063e+00	1.292063e+00	1.292063e+00	1.292063e+00	1.292063e+00	1.292064e+00	1.292064e+00	1.292065e+00	1.292066e+00	1.292067e+00	1.292068e+00	1.292071e+00	1.292074e+00	1.292079e+00	1.292086e+00	1.292095e+00	1.292110e+00	1.292130e+00	1.292156e+00	1.292189e+00	1.292226e+00	1.292269e+00	1.292307e+00	1.292385e+00	1.292500e+00	1.292938e+00	1.377775e+00	1.363244e+00	1.375486e+00	1.368198e+00	1.368848e+00	1.363936e+00	1.359561e+00	1.352506e+00	1.344384e+00	1.335086e+00	1.325332e+00	1.315226e+00	1.304500e+00	1.292861e+00	1.280436e+00	1.267276e+00	1.255270e+00	1.248554e+00	1.249447e+00	1.256111e+00	1.264793e+00	1.272689e+00	1.278743e+00	1.283024e+00	1.285944e+00	1.287914e+00	1.289244e+00	1.290072e+00	1.290509e+00	1.407294e+00	1.404124e+00	1.413507e+00	1.405102e+00	1.404522e+00	1.401515e+00	1.399160e+00	1.395811e+00	1.392148e+00	1.387658e+00	1.382183e+00	1.375471e+00	1.367413e+00	1.358095e+00	1.347904e+00	1.337878e+00	1.329342e+00	1.322814e+00	1.317759e+00	1.313369e+00	1.309254e+00	1.305473e+00	1.302217e+00	1.299588e+00	1.297570e+00	1.296069e+00	1.294986e+00	1.294268e+00	1.293817e+00	1.290509e+00	1.290509e+00	1.290508e+00	1.290508e+00	1.290508e+00	1.290507e+00	1.290507e+00	1.290506e+00	1.290506e+00	1.290505e+00	1.290504e+00	1.290504e+00	1.290503e+00	1.290502e+00	1.290501e+00	1.290500e+00	1.290498e+00	1.290497e+00	1.290496e+00	1.290494e+00	1.290492e+00	1.290490e+00	1.290487e+00	1.290485e+00	1.290482e+00	1.290479e+00	1.290475e+00	1.290471e+00	1.290466e+00	1.290461e+00	1.290456e+00	1.290450e+00	1.290443e+00	1.290435e+00	1.290427e+00	1.290419e+00	1.290409e+00	1.290399e+00	1.290389e+00	1.290378e+00	1.290368e+00	1.290357e+00	1.290348e+00	1.290341e+00	1.290336e+00	1.290335e+00	1.290340e+00	1.290352e+00	1.290373e+00	1.290405e+00	1.290450e+00	1.290511e+00	1.290592e+00	1.290690e+00	1.290822e+00	1.290965e+00	1.291191e+00	1.291392e+00	1.293817e+00	1.293818e+00	1.293818e+00	1.293818e+00	1.293818e+00	1.293819e+00	1.293819e+00	1.293820e+00	1.293820e+00	1.293821e+00	1.293821e+00	1.293822e+00	1.293822e+00	1.293823e+00	1.293824e+00	1.293825e+00	1.293826e+00	1.293827e+00	1.293829e+00	1.293830e+00	1.293832e+00	1.293834e+00	1.293836e+00	1.293838e+00	1.293841e+00	1.293844e+00	1.293847e+00	1.293851e+00	1.293855e+00	1.293860e+00	1.293866e+00	1.293872e+00	1.293878e+00	1.293886e+00	1.293894e+00	1.293903e+00	1.293913e+00	1.293924e+00	1.293936e+00	1.293948e+00	1.293962e+00	1.293975e+00	1.293988e+00	1.294001e+00	1.294012e+00	1.294021e+00	1.294025e+00	1.294024e+00	1.294016e+00	1.293997e+00	1.293966e+00	1.293921e+00	1.293857e+00	1.293775e+00	1.293665e+00	1.293542e+00	1.293356e+00	1.293187e+00	1.290510e+00	1.290510e+00	1.290511e+00	1.290511e+00	1.290512e+00	1.290512e+00	1.290513e+00	1.290513e+00	1.290514e+00	1.290515e+00	1.290516e+00	1.290517e+00	1.290518e+00	1.290519e+00	1.290520e+00	1.290521e+00	1.290523e+00	1.290524e+00	1.290526e+00	1.290528e+00	1.290530e+00	1.290532e+00	1.290534e+00	1.290537e+00	1.290539e+00	1.290542e+00	1.290546e+00	1.290549e+00	1.290553e+00	1.290557e+00	1.290562e+00	1.290567e+00	1.290573e+00	1.290578e+00	1.290585e+00	1.290593e+00	1.290602e+00	1.290613e+00	1.290625e+00	1.290639e+00	1.290655e+00	1.290673e+00	1.290694e+00	1.290718e+00	1.290745e+00	1.290776e+00	1.290810e+00	1.290850e+00	1.290894e+00	1.290943e+00	1.290998e+00	1.291058e+00	1.291123e+00	1.291193e+00	1.291267e+00	1.291345e+00	1.291426e+00	1.291507e+00	1.291589e+00	1.291669e+00	1.291747e+00	1.291820e+00	1.291888e+00	1.291950e+00	1.292006e+00	1.292056e+00	1.292100e+00	1.292138e+00	1.292171e+00	1.292200e+00	1.292225e+00	1.292247e+00	1.292268e+00	1.292287e+00	1.292306e+00	1.292326e+00	1.292348e+00	1.292371e+00	1.292398e+00	1.292428e+00	1.292461e+00	1.292500e+00	1.292543e+00	1.292590e+00	1.292642e+00	1.292698e+00	1.292757e+00	1.292819e+00	1.292883e+00	1.292948e+00	1.293013e+00	1.293078e+00	1.293140e+00	1.293200e+00	1.293256e+00	1.293310e+00	1.293359e+00	1.293405e+00	1.293447e+00	1.293485e+00	1.293520e+00	1.293551e+00	1.293579e+00	1.293604e+00	1.293627e+00	1.293647e+00	1.293665e+00	1.293681e+00	1.293695e+00	1.293708e+00	1.293719e+00	1.293729e+00	1.293738e+00	1.293746e+00	1.293753e+00	1.293760e+00	1.293766e+00	1.293771e+00	1.293775e+00	1.293780e+00	1.293783e+00	1.293787e+00	1.293790e+00	1.293793e+00	1.293795e+00	1.293797e+00	1.293799e+00	1.293801e+00	1.293803e+00	1.293804e+00	1.293806e+00	1.293807e+00	1.293808e+00	1.293809e+00	1.293810e+00	1.293811e+00	1.293812e+00	1.293813e+00	1.293813e+00	1.293814e+00	1.293814e+00	1.293815e+00	1.293815e+00	1.293816e+00	1.293816e+00	1.293816e+00	1.293817e+00	1.354304e+00	1.354211e+00	1.358357e+00	1.356749e+00	1.358599e+00	1.356845e+00	1.354252e+00	1.348665e+00	1.341366e+00	1.332637e+00	1.323290e+00	1.313512e+00	1.303055e+00	1.291642e+00	1.279397e+00	1.266374e+00	1.254524e+00	1.248019e+00	1.249127e+00	1.255950e+00	1.264726e+00	1.272665e+00	1.278736e+00	1.283022e+00	1.285943e+00	1.287914e+00	1.289244e+00	1.290072e+00	1.342466e+00	1.345188e+00	1.347696e+00	1.349544e+00	1.351588e+00	1.351115e+00	1.349048e+00	1.344310e+00	1.337754e+00	1.329719e+00	1.320925e+00	1.311576e+00	1.301450e+00	1.290303e+00	1.278264e+00	1.265397e+00	1.253721e+00	1.247446e+00	1.248786e+00	1.255782e+00	1.264656e+00	1.272640e+00	1.278728e+00	1.283019e+00	1.285943e+00	1.287914e+00	1.289244e+00	1.290072e+00	1.326751e+00	1.330281e+00	1.333832e+00	1.337238e+00	1.340115e+00	1.341437e+00	1.341085e+00	1.338187e+00	1.333065e+00	1.326124e+00	1.318108e+00	1.309329e+00	1.299628e+00	1.288811e+00	1.277021e+00	1.264336e+00	1.252853e+00	1.246829e+00	1.248422e+00	1.255602e+00	1.264582e+00	1.272614e+00	1.278719e+00	1.283017e+00	1.285942e+00	1.287914e+00	1.289244e+00	1.290072e+00	1.317037e+00	1.320936e+00	1.324892e+00	1.328657e+00	1.331903e+00	1.333957e+00	1.334314e+00	1.332332e+00	1.328163e+00	1.322177e+00	1.314976e+00	1.306839e+00	1.297624e+00	1.287182e+00	1.275669e+00	1.263186e+00	1.251915e+00	1.246164e+00	1.248030e+00	1.255410e+00	1.264503e+00	1.272586e+00	1.278711e+00	1.283014e+00	1.285941e+00	1.287914e+00	1.289244e+00	1.290072e+00	1.307496e+00	1.311455e+00	1.315449e+00	1.319349e+00	1.322857e+00	1.325432e+00	1.326514e+00	1.325572e+00	1.322548e+00	1.317678e+00	1.311422e+00	1.304033e+00	1.295389e+00	1.285383e+00	1.274190e+00	1.261937e+00	1.250901e+00	1.245446e+00	1.247609e+00	1.255205e+00	1.264419e+00	1.272556e+00	1.278701e+00	1.283012e+00	1.285940e+00	1.287914e+00	1.289244e+00	1.290072e+00	1.299298e+00	1.303304e+00	1.307366e+00	1.311396e+00	1.315086e+00	1.317950e+00	1.319439e+00	1.319106e+00	1.316864e+00	1.312907e+00	1.307552e+00	1.300949e+00	1.292934e+00	1.283416e+00	1.272581e+00	1.260583e+00	1.249804e+00	1.244672e+00	1.247157e+00	1.254986e+00	1.264330e+00	1.272525e+00	1.278691e+00	1.283009e+00	1.285940e+00	1.287913e+00	1.289244e+00	1.290072e+00	1.291124e+00	1.295155e+00	1.299258e+00	1.303353e+00	1.307147e+00	1.310204e+00	1.312024e+00	1.312241e+00	1.310762e+00	1.307724e+00	1.303305e+00	1.297547e+00	1.290228e+00	1.281258e+00	1.270826e+00	1.259114e+00	1.248617e+00	1.243837e+00	1.246672e+00	1.254753e+00	1.264235e+00	1.272491e+00	1.278681e+00	1.283006e+00	1.285939e+00	1.287913e+00	1.289244e+00	1.290072e+00	1.283355e+00	1.287433e+00	1.291593e+00	1.295765e+00	1.299668e+00	1.302889e+00	1.304955e+00	1.305550e+00	1.304627e+00	1.302335e+00	1.298771e+00	1.293856e+00	1.287276e+00	1.278905e+00	1.268917e+00	1.257520e+00	1.247334e+00	1.242938e+00	1.246152e+00	1.254505e+00	1.264135e+00	1.272456e+00	1.278669e+00	1.283002e+00	1.285938e+00	1.287913e+00	1.289244e+00	1.290072e+00	1.275996e+00	1.280078e+00	1.284248e+00	1.288438e+00	1.292375e+00	1.295664e+00	1.297865e+00	1.298731e+00	1.298273e+00	1.296659e+00	1.293918e+00	1.289858e+00	1.284059e+00	1.276341e+00	1.266840e+00	1.255790e+00	1.245946e+00	1.241969e+00	1.245595e+00	1.254241e+00	1.264028e+00	1.272418e+00	1.278658e+00	1.282999e+00	1.285937e+00	1.287913e+00	1.289244e+00	1.290072e+00	1.268855e+00	1.272914e+00	1.277077e+00	1.281267e+00	1.285220e+00	1.288555e+00	1.290863e+00	1.291946e+00	1.291862e+00	1.290815e+00	1.288811e+00	1.285577e+00	1.280580e+00	1.273558e+00	1.264586e+00	1.253915e+00	1.244445e+00	1.240926e+00	1.244999e+00	1.253960e+00	1.263916e+00	1.272379e+00	1.278645e+00	1.282995e+00	1.285936e+00	1.287912e+00	1.289243e+00	1.290072e+00	1.261330e+00	1.265420e+00	1.269620e+00	1.273862e+00	1.277886e+00	1.281317e+00	1.283762e+00	1.285055e+00	1.285303e+00	1.284761e+00	1.283439e+00	1.281009e+00	1.276831e+00	1.270544e+00	1.262141e+00	1.251882e+00	1.242821e+00	1.239803e+00	1.244362e+00	1.253662e+00	1.263798e+00	1.272337e+00	1.278632e+00	1.282991e+00	1.285934e+00	1.287912e+00	1.289243e+00	1.290072e+00	1.254133e+00	1.258239e+00	1.262458e+00	1.266731e+00	1.270797e+00	1.274281e+00	1.276799e+00	1.278222e+00	1.278710e+00	1.278578e+00	1.277854e+00	1.276179e+00	1.272818e+00	1.267296e+00	1.259495e+00	1.249679e+00	1.241066e+00	1.238595e+00	1.243681e+00	1.253346e+00	1.263673e+00	1.272294e+00	1.278618e+00	1.282987e+00	1.285933e+00	1.287912e+00	1.289243e+00	1.290072e+00	1.247298e+00	1.251366e+00	1.255558e+00	1.259811e+00	1.263859e+00	1.267329e+00	1.269850e+00	1.271339e+00	1.272012e+00	1.272233e+00	1.272049e+00	1.271089e+00	1.268540e+00	1.263805e+00	1.256635e+00	1.247293e+00	1.239169e+00	1.237296e+00	1.242954e+00	1.253012e+00	1.263542e+00	1.272248e+00	1.278603e+00	1.282982e+00	1.285932e+00	1.287911e+00	1.289243e+00	1.290072e+00	1.240149e+00	1.244194e+00	1.248380e+00	1.252634e+00	1.256694e+00	1.260183e+00	1.262746e+00	1.264334e+00	1.265199e+00	1.265746e+00	1.266053e+00	1.265763e+00	1.264008e+00	1.260069e+00	1.253552e+00	1.244710e+00	1.237118e+00	1.235900e+00	1.242179e+00	1.252658e+00	1.263404e+00	1.272200e+00	1.278587e+00	1.282977e+00	1.285930e+00	1.287911e+00	1.289243e+00	1.290072e+00	1.232593e+00	1.236661e+00	1.240876e+00	1.245179e+00	1.249303e+00	1.252867e+00	1.255517e+00	1.257229e+00	1.258281e+00	1.259124e+00	1.259875e+00	1.260212e+00	1.259228e+00	1.256087e+00	1.250233e+00	1.241915e+00	1.234901e+00	1.234401e+00	1.241354e+00	1.252286e+00	1.263260e+00	1.272149e+00	1.278571e+00	1.282972e+00	1.285929e+00	1.287911e+00	1.289243e+00	1.290072e+00	1.225411e+00	1.229467e+00	1.233680e+00	1.237999e+00	1.242147e+00	1.245733e+00	1.248404e+00	1.250162e+00	1.251328e+00	1.252405e+00	1.253546e+00	1.254462e+00	1.254219e+00	1.251861e+00	1.246669e+00	1.238892e+00	1.232507e+00	1.232792e+00	1.240477e+00	1.251893e+00	1.263109e+00	1.272097e+00	1.278554e+00	1.282967e+00	1.285927e+00	1.287910e+00	1.289243e+00	1.290072e+00	1.218458e+00	1.222457e+00	1.226635e+00	1.230934e+00	1.235062e+00	1.238618e+00	1.241252e+00	1.243011e+00	1.244263e+00	1.245558e+00	1.247063e+00	1.248527e+00	1.248993e+00	1.247394e+00	1.242848e+00	1.235624e+00	1.229920e+00	1.231067e+00	1.239547e+00	1.251480e+00	1.262951e+00	1.272042e+00	1.278536e+00	1.282961e+00	1.285925e+00	1.287910e+00	1.289243e+00	1.290072e+00	1.210945e+00	1.214912e+00	1.219083e+00	1.223394e+00	1.227544e+00	1.231119e+00	1.233779e+00	1.235612e+00	1.237017e+00	1.238571e+00	1.240443e+00	1.242434e+00	1.243574e+00	1.242693e+00	1.238759e+00	1.232090e+00	1.227126e+00	1.229218e+00	1.238561e+00	1.251048e+00	1.262787e+00	1.271985e+00	1.278518e+00	1.282955e+00	1.285923e+00	1.287909e+00	1.289243e+00	1.290072e+00	1.202891e+00	1.206868e+00	1.211070e+00	1.215446e+00	1.219682e+00	1.223348e+00	1.226108e+00	1.228081e+00	1.229683e+00	1.231507e+00	1.233734e+00	1.236222e+00	1.237992e+00	1.237766e+00	1.234390e+00	1.228270e+00	1.224108e+00	1.227239e+00	1.237518e+00	1.250595e+00	1.262617e+00	1.271926e+00	1.278499e+00	1.282949e+00	1.285921e+00	1.287908e+00	1.289242e+00	1.290072e+00	1.195285e+00	1.199237e+00	1.203441e+00	1.207859e+00	1.212152e+00	1.215866e+00	1.218668e+00	1.220711e+00	1.222438e+00	1.224471e+00	1.227002e+00	1.229948e+00	1.232286e+00	1.232627e+00	1.229729e+00	1.224143e+00	1.220849e+00	1.225124e+00	1.236417e+00	1.250123e+00	1.262440e+00	1.271866e+00	1.278479e+00	1.282943e+00	1.285919e+00	1.287908e+00	1.289242e+00	1.290072e+00	1.188103e+00	1.191979e+00	1.196156e+00	1.200583e+00	1.204892e+00	1.208594e+00	1.211373e+00	1.213423e+00	1.215234e+00	1.217452e+00	1.220270e+00	1.223650e+00	1.226488e+00	1.227281e+00	1.224753e+00	1.219675e+00	1.217332e+00	1.222867e+00	1.235260e+00	1.249632e+00	1.262258e+00	1.271803e+00	1.278458e+00	1.282936e+00	1.285917e+00	1.287907e+00	1.289242e+00	1.290072e+00	1.180569e+00	1.184382e+00	1.188557e+00	1.193027e+00	1.197385e+00	1.201108e+00	1.203905e+00	1.206017e+00	1.207981e+00	1.210438e+00	1.213567e+00	1.217368e+00	1.220618e+00	1.221708e+00	1.219415e+00	1.214816e+00	1.213521e+00	1.220458e+00	1.234046e+00	1.249125e+00	1.262070e+00	1.271739e+00	1.278437e+00	1.282929e+00	1.285914e+00	1.287906e+00	1.289242e+00	1.290072e+00	1.172938e+00	1.176702e+00	1.180896e+00	1.185446e+00	1.189894e+00	1.193683e+00	1.196558e+00	1.198801e+00	1.200980e+00	1.203693e+00	1.207114e+00	1.211271e+00	1.214772e+00	1.215932e+00	1.213685e+00	1.209519e+00	1.209380e+00	1.217877e+00	1.232771e+00	1.248602e+00	1.261879e+00	1.271673e+00	1.278415e+00	1.282921e+00	1.285912e+00	1.287905e+00	1.289241e+00	1.290072e+00	1.166183e+00	1.169890e+00	1.174124e+00	1.178790e+00	1.183359e+00	1.187230e+00	1.190190e+00	1.192544e+00	1.194880e+00	1.197744e+00	1.201348e+00	1.205702e+00	1.209185e+00	1.210082e+00	1.207622e+00	1.203813e+00	1.204924e+00	1.215125e+00	1.231426e+00	1.248061e+00	1.261684e+00	1.271607e+00	1.278393e+00	1.282914e+00	1.285909e+00	1.287904e+00	1.289241e+00	1.290072e+00	1.160780e+00	1.164354e+00	1.168606e+00	1.173355e+00	1.177982e+00	1.181836e+00	1.184759e+00	1.187089e+00	1.189475e+00	1.192419e+00	1.196161e+00	1.200588e+00	1.203761e+00	1.204046e+00	1.201137e+00	1.197679e+00	1.200202e+00	1.212254e+00	1.230028e+00	1.247500e+00	1.261484e+00	1.271539e+00	1.278371e+00	1.282906e+00	1.285906e+00	1.287904e+00	1.289241e+00	1.290073e+00	1.153813e+00	1.157251e+00	1.161550e+00	1.166418e+00	1.171111e+00	1.174969e+00	1.177915e+00	1.180373e+00	1.183053e+00	1.186309e+00	1.190366e+00	1.194859e+00	1.197489e+00	1.196902e+00	1.193488e+00	1.190669e+00	1.195065e+00	1.209291e+00	1.228619e+00	1.246929e+00	1.261279e+00	1.271470e+00	1.278348e+00	1.282898e+00	1.285903e+00	1.287903e+00	1.289241e+00	1.290073e+00	1.146007e+00	1.149447e+00	1.153907e+00	1.159044e+00	1.163941e+00	1.167981e+00	1.171195e+00	1.174064e+00	1.177215e+00	1.180783e+00	1.185038e+00	1.189169e+00	1.190499e+00	1.188281e+00	1.184026e+00	1.182103e+00	1.189050e+00	1.206075e+00	1.227202e+00	1.246369e+00	1.261074e+00	1.271401e+00	1.278324e+00	1.282890e+00	1.285900e+00	1.287902e+00	1.289240e+00	1.290073e+00	1.150851e+00	1.154241e+00	1.158960e+00	1.164378e+00	1.169476e+00	1.173568e+00	1.176828e+00	1.179603e+00	1.182367e+00	1.185250e+00	1.188532e+00	1.190515e+00	1.188144e+00	1.181826e+00	1.174797e+00	1.172679e+00	1.182064e+00	1.202372e+00	1.225693e+00	1.245814e+00	1.260875e+00	1.271332e+00	1.278301e+00	1.282882e+00	1.285897e+00	1.287901e+00	1.289240e+00	1.290074e+00	1.177742e+00	1.180608e+00	1.185686e+00	1.191072e+00	1.196012e+00	1.199505e+00	1.201996e+00	1.203535e+00	1.204677e+00	1.205499e+00	1.205528e+00	1.202286e+00	1.193317e+00	1.180779e+00	1.169177e+00	1.164949e+00	1.175232e+00	1.198345e+00	1.224031e+00	1.245241e+00	1.260679e+00	1.271264e+00	1.278278e+00	1.282874e+00	1.285894e+00	1.287900e+00	1.289240e+00	1.290074e+00	1.178190e+00	1.180776e+00	1.186314e+00	1.191219e+00	1.195740e+00	1.198406e+00	1.200384e+00	1.201284e+00	1.201860e+00	1.201134e+00	1.196690e+00	1.188134e+00	1.177420e+00	1.168539e+00	1.161168e+00	1.158736e+00	1.169783e+00	1.194620e+00	1.222319e+00	1.244644e+00	1.260484e+00	1.271198e+00	1.278255e+00	1.282866e+00	1.285891e+00	1.287899e+00	1.289240e+00	1.290075e+00	9.739022e-01	9.790638e-01	9.856928e-01	9.912774e-01	9.953474e-01	9.981042e-01	9.998968e-01	1.001250e+00	1.002836e+00	1.004620e+00	1.010665e+00	1.028127e+00	1.061011e+00	1.101058e+00	1.129700e+00	1.146276e+00	1.164381e+00	1.191455e+00	1.220724e+00	1.244049e+00	1.260291e+00	1.271134e+00	1.278233e+00	1.282858e+00	1.285888e+00	1.287898e+00	1.289240e+00	1.290076e+00	7.775435e-01	7.855678e-01	7.900138e-01	7.939298e-01	7.958529e-01	7.975206e-01	7.980743e-01	7.987172e-01	8.004198e-01	8.062958e-01	8.239889e-01	8.581194e-01	9.152079e-01	9.921370e-01	1.067366e+00	1.120607e+00	1.155954e+00	1.188286e+00	1.219272e+00	1.243483e+00	1.260104e+00	1.271073e+00	1.278212e+00	1.282850e+00	1.285885e+00	1.287897e+00	1.289240e+00	1.290077e+00	7.697154e-01	7.744250e-01	7.773283e-01	7.800434e-01	7.822992e-01	7.844052e-01	7.864788e-01	7.894305e-01	7.945823e-01	8.038154e-01	8.184501e-01	8.398689e-01	8.728927e-01	9.268625e-01	1.006253e+00	1.087040e+00	1.143991e+00	1.184593e+00	1.217887e+00	1.242951e+00	1.259926e+00	1.271015e+00	1.278192e+00	1.282843e+00	1.285883e+00	1.287896e+00	1.289240e+00	1.290078e+00	7.704490e-01	7.741253e-01	7.777549e-01	7.815644e-01	7.852239e-01	7.888725e-01	7.929355e-01	7.982810e-01	8.057540e-01	8.158888e-01	8.295287e-01	8.469648e-01	8.711041e-01	9.093894e-01	9.718317e-01	1.056789e+00	1.130682e+00	1.180454e+00	1.216533e+00	1.242458e+00	1.259761e+00	1.270961e+00	1.278174e+00	1.282836