# vtk DataFile Version 3.0
vtk output
ASCII
DATASET UNSTRUCTURED_GRID
POINTS 1828 double
1.000000e+02	0.000000e+00	0.0	9.917900e+01	1.278772e+01	0.0	9.672949e+01	2.536546e+01	0.0	9.269168e+01	3.752670e+01	0.0	8.713187e+01	4.907176e+01	0.0	8.014136e+01	5.981105e+01	0.0	7.183494e+01	6.956826e+01	0.0	6.234898e+01	7.818315e+01	0.0	5.183926e+01	8.551428e+01	0.0	4.047833e+01	9.144126e+01	0.0	2.845276e+01	9.586679e+01	0.0	1.595999e+01	9.871818e+01	0.0	3.205158e+00	9.994862e+01	0.0	-9.602303e+00	9.953791e+01	0.0	-2.225209e+01	9.749279e+01	0.0	-3.453651e+01	9.384684e+01	0.0	-4.625383e+01	8.865993e+01	0.0	-5.721167e+01	8.201723e+01	0.0	-6.723009e+01	7.402780e+01	0.0	-7.614460e+01	6.482284e+01	0.0	-8.380881e+01	5.455349e+01	0.0	-9.009689e+01	4.338837e+01	0.0	-9.490557e+01	3.151082e+01	0.0	-9.815592e+01	1.911586e+01	0.0	-9.979454e+01	6.407022e+00	0.0	-9.979454e+01	-6.407022e+00	0.0	-9.815592e+01	-1.911586e+01	0.0	-9.490557e+01	-3.151082e+01	0.0	-9.009689e+01	-4.338837e+01	0.0	-8.380881e+01	-5.455349e+01	0.0	-7.614460e+01	-6.482284e+01	0.0	-6.723009e+01	-7.402780e+01	0.0	-5.721167e+01	-8.201723e+01	0.0	-4.625383e+01	-8.865993e+01	0.0	-3.453651e+01	-9.384684e+01	0.0	-2.225209e+01	-9.749279e+01	0.0	-9.602303e+00	-9.953791e+01	0.0	3.205158e+00	-9.994862e+01	0.0	1.595999e+01	-9.871818e+01	0.0	2.845276e+01	-9.586679e+01	0.0	4.047833e+01	-9.144126e+01	0.0	5.183926e+01	-8.551428e+01	0.0	6.234898e+01	-7.818315e+01	0.0	7.183494e+01	-6.956826e+01	0.0	8.014136e+01	-5.981105e+01	0.0	8.713187e+01	-4.907176e+01	0.0	9.269168e+01	-3.752670e+01	0.0	9.672949e+01	-2.536546e+01	0.0	9.917900e+01	-1.278772e+01	0.0	0.000000e+00	0.000000e+00	0.0	3.476324e-03	3.593769e-03	0.0	7.245368e-03	7.123303e-03	0.0	1.175521e-02	1.005228e-02	0.0	1.652949e-02	1.290987e-02	0.0	2.173702e-02	1.540511e-02	0.0	2.718008e-02	1.787379e-02	0.0	3.294650e-02	2.012521e-02	0.0	3.893753e-02	2.238851e-02	0.0	4.518774e-02	2.458293e-02	0.0	5.164511e-02	2.686143e-02	0.0	5.831201e-02	2.922935e-02	0.0	6.513601e-02	3.183552e-02	0.0	7.213851e-02	3.463332e-02	0.0	7.929173e-02	3.768826e-02	0.0	8.667138e-02	4.082269e-02	0.0	9.448615e-02	4.350775e-02	0.0	1.026381e-01	4.586068e-02	0.0	1.112736e-01	4.731326e-02	0.0	1.202030e-01	4.816046e-02	0.0	1.294577e-01	4.799105e-02	0.0	1.389527e-01	4.764093e-02	0.0	1.486599e-01	4.664575e-02	0.0	1.586162e-01	4.562503e-02	0.0	1.688343e-01	4.472624e-02	0.0	1.793024e-01	4.383884e-02	0.0	1.900268e-01	4.322723e-02	0.0	2.010204e-01	4.329652e-02	0.0	2.122532e-01	4.336732e-02	0.0	2.236674e-01	4.434805e-02	0.0	2.352930e-01	4.565052e-02	0.0	2.471266e-01	4.708871e-02	0.0	2.591114e-01	4.903296e-02	0.0	2.713049e-01	5.101110e-02	0.0	2.837040e-01	5.299608e-02	0.0	2.962990e-01	5.499593e-02	0.0	3.090831e-01	5.699022e-02	0.0	3.221167e-01	5.846394e-02	0.0	3.353162e-01	5.995642e-02	0.0	3.487048e-01	6.106477e-02	0.0	3.622678e-01	6.182602e-02	0.0	3.759637e-01	6.257786e-02	0.0	3.898008e-01	6.252701e-02	0.0	4.037451e-01	6.247577e-02	0.0	4.177671e-01	6.196361e-02	0.0	4.318544e-01	6.102855e-02	0.0	4.460056e-01	6.006949e-02	0.0	4.601433e-01	5.840206e-02	0.0	4.743178e-01	5.673029e-02	0.0	4.884883e-01	5.485737e-02	0.0	5.026421e-01	5.280145e-02	0.0	5.167886e-01	5.074629e-02	0.0	5.309067e-01	4.865147e-02	0.0	5.449883e-01	4.656208e-02	0.0	5.590321e-01	4.457359e-02	0.0	5.730244e-01	4.269207e-02	0.0	5.869374e-01	4.082122e-02	0.0	6.007741e-01	3.909218e-02	0.0	6.145051e-01	3.738093e-02	0.0	6.281181e-01	3.569461e-02	0.0	6.416010e-01	3.403749e-02	0.0	6.549403e-01	3.239802e-02	0.0	6.681170e-01	3.071631e-02	0.0	6.811273e-01	2.904865e-02	0.0	6.939641e-01	2.742196e-02	0.0	7.066201e-01	2.585448e-02	0.0	7.190819e-01	2.431106e-02	0.0	7.313693e-01	2.304724e-02	0.0	7.434537e-01	2.187194e-02	0.0	7.553340e-01	2.090862e-02	0.0	7.670218e-01	2.041442e-02	0.0	7.784796e-01	1.992994e-02	0.0	7.897083e-01	2.014706e-02	0.0	8.006985e-01	2.043182e-02	0.0	8.114374e-01	2.091893e-02	0.0	8.219259e-01	2.151701e-02	0.0	8.321716e-01	2.200269e-02	0.0	8.421746e-01	2.233290e-02	0.0	8.519269e-01	2.254261e-02	0.0	8.614258e-01	2.214683e-02	0.0	8.706741e-01	2.176150e-02	0.0	8.796350e-01	2.089511e-02	0.0	8.883389e-01	1.993354e-02	0.0	8.967798e-01	1.887337e-02	0.0	9.049451e-01	1.760564e-02	0.0	9.128698e-01	1.637527e-02	0.0	9.205348e-01	1.505156e-02	0.0	9.279611e-01	1.374268e-02	0.0	9.351533e-01	1.245854e-02	0.0	9.421132e-01	1.118760e-02	0.0	9.488492e-01	9.956907e-03	0.0	9.553599e-01	8.735148e-03	0.0	9.616551e-01	7.553804e-03	0.0	9.677351e-01	6.390431e-03	0.0	9.736080e-01	5.262823e-03	0.0	9.792754e-01	4.156189e-03	0.0	9.847443e-01	3.081271e-03	0.0	9.900185e-01	2.031859e-03	0.0	9.951019e-01	1.004207e-03	0.0	1.000000e+00	0.000000e+00	0.0	9.950040e-01	1.973251e-04	0.0	9.898190e-01	3.932190e-04	0.0	9.844384e-01	5.409352e-04	0.0	9.788579e-01	6.445112e-04	0.0	9.730731e-01	7.238075e-04	0.0	9.670789e-01	7.452760e-04	0.0	9.608712e-01	7.436162e-04	0.0	9.544453e-01	6.767839e-04	0.0	9.477967e-01	5.931480e-04	0.0	9.409225e-01	4.145189e-04	0.0	9.338169e-01	2.298748e-04	0.0	9.264795e-01	-6.916696e-05	0.0	9.189038e-01	-4.010785e-04	0.0	9.110928e-01	-8.581433e-04	0.0	9.030476e-01	-1.511105e-03	0.0	8.947544e-01	-2.184192e-03	0.0	8.862715e-01	-3.403406e-03	0.0	8.775447e-01	-4.716519e-03	0.0	8.686421e-01	-6.447868e-03	0.0	8.595906e-01	-8.736270e-03	0.0	8.502939e-01	-1.110043e-02	0.0	8.410219e-01	-1.442600e-02	0.0	8.315082e-01	-1.783825e-02	0.0	8.217922e-01	-2.144126e-02	0.0	8.118592e-01	-2.519097e-02	0.0	8.016221e-01	-2.882950e-02	0.0	7.909861e-01	-3.206976e-02	0.0	7.801149e-01	-3.538167e-02	0.0	7.686952e-01	-3.742985e-02	0.0	7.570256e-01	-3.944847e-02	0.0	7.450474e-01	-4.085346e-02	0.0	7.327825e-01	-4.177052e-02	0.0	7.202975e-01	-4.265214e-02	0.0	7.075790e-01	-4.312134e-02	0.0	6.946589e-01	-4.359797e-02	0.0	6.815499e-01	-4.416624e-02	0.0	6.682606e-01	-4.479569e-02	0.0	6.548031e-01	-4.549118e-02	0.0	6.412152e-01	-4.665405e-02	0.0	6.274786e-01	-4.782966e-02	0.0	6.136409e-01	-4.935242e-02	0.0	5.997019e-01	-5.109794e-02	0.0	5.856628e-01	-5.292449e-02	0.0	5.715964e-01	-5.523864e-02	0.0	5.574484e-01	-5.756622e-02	0.0	5.432897e-01	-6.021488e-02	0.0	5.291121e-01	-6.305649e-02	0.0	5.149017e-01	-6.592846e-02	0.0	5.007017e-01	-6.896390e-02	0.0	4.864942e-01	-7.200095e-02	0.0	4.722669e-01	-7.490407e-02	0.0	4.580455e-01	-7.772182e-02	0.0	4.438483e-01	-8.045618e-02	0.0	4.296095e-01	-8.264655e-02	0.0	4.154380e-01	-8.482657e-02	0.0	4.012864e-01	-8.650453e-02	0.0	3.871969e-01	-8.790222e-02	0.0	3.732092e-01	-8.917809e-02	0.0	3.593056e-01	-8.992901e-02	0.0	3.455389e-01	-9.067254e-02	0.0	3.319089e-01	-9.107085e-02	0.0	3.184349e-01	-9.132805e-02	0.0	3.051328e-01	-9.148726e-02	0.0	2.920121e-01	-9.134588e-02	0.0	2.790839e-01	-9.120658e-02	0.0	2.663709e-01	-9.065363e-02	0.0	2.538721e-01	-8.998001e-02	0.0	2.416081e-01	-8.911415e-02	0.0	2.296149e-01	-8.771827e-02	0.0	2.178514e-01	-8.634912e-02	0.0	2.064351e-01	-8.429807e-02	0.0	1.952913e-01	-8.206910e-02	0.0	1.844332e-01	-7.970419e-02	0.0	1.739772e-01	-7.673498e-02	0.0	1.637639e-01	-7.383464e-02	0.0	1.539147e-01	-7.062678e-02	0.0	1.443791e-01	-6.727627e-02	0.0	1.350858e-01	-6.401087e-02	0.0	1.261758e-01	-6.045530e-02	0.0	1.175051e-01	-5.699332e-02	0.0	1.091011e-01	-5.355673e-02	0.0	1.009867e-01	-5.008706e-02	0.0	9.310521e-02	-4.671701e-02	0.0	8.547984e-02	-4.338801e-02	0.0	7.809209e-02	-4.013638e-02	0.0	7.092576e-02	-3.699233e-02	0.0	6.396485e-02	-3.398459e-02	0.0	5.722362e-02	-3.107176e-02	0.0	5.063573e-02	-2.840384e-02	0.0	4.424762e-02	-2.585853e-02	0.0	3.804133e-02	-2.347302e-02	0.0	3.203081e-02	-2.119919e-02	0.0	2.628166e-02	-1.885809e-02	0.0	2.078510e-02	-1.647709e-02	0.0	1.567139e-02	-1.377139e-02	0.0	1.095964e-02	-1.079977e-02	0.0	6.598101e-03	-7.652007e-03	0.0	2.819399e-03	-4.096086e-03	0.0	4.226663e-01	-1.327445e-01	0.0	4.075537e-01	-1.521050e-01	0.0	4.324879e-01	-1.625505e-01	0.0	8.312958e+01	3.553023e+01	0.0	8.189066e+01	2.445612e+01	0.0	8.890270e+01	2.862310e+01	0.0	8.995873e+01	6.944724e+00	0.0	8.797433e+01	-4.973469e+00	0.0	7.429227e+01	4.175390e+01	0.0	7.771599e+01	-2.196839e+00	0.0	7.800478e+01	-1.305867e+01	0.0	8.283623e+01	-2.589863e+01	0.0	8.914182e+01	-1.681025e+01	0.0	5.248472e+01	3.584845e+01	0.0	5.449943e+01	4.406641e+01	0.0	4.720553e+01	4.007787e+01	0.0	5.769023e+01	-3.838387e+01	0.0	6.599380e+01	-3.385698e+01	0.0	5.703276e+01	-3.065502e+01	0.0	6.160482e+01	6.725376e+01	0.0	6.746269e+01	5.926006e+01	0.0	5.252620e+01	7.153438e+01	0.0	5.355189e+01	5.712433e+01	0.0	3.972495e+01	-7.911956e+01	0.0	4.283481e+01	-6.704605e+01	0.0	3.460064e+01	-7.110968e+01	0.0	7.823239e+01	-3.847449e+01	0.0	7.498142e+01	-5.001446e+01	0.0	4.051817e+01	7.601784e+01	0.0	6.885677e+01	-5.844313e+01	0.0	6.663359e+01	-5.098493e+01	0.0	8.437783e+00	8.937566e+01	0.0	1.665910e+01	8.279847e+01	0.0	1.970287e+01	8.996937e+01	0.0	5.758139e+01	-6.465064e+01	0.0	5.092970e+01	-7.530280e+01	0.0	8.281116e+00	7.887066e+01	0.0	1.911092e+01	1.124860e+01	0.0	1.334403e+01	5.979455e+00	0.0	2.038200e+01	3.589280e+00	0.0	3.434033e+00	7.423194e-01	0.0	4.317930e+00	1.940391e+00	0.0	3.221834e+00	1.499047e+00	0.0	1.127931e+00	2.300542e+00	0.0	9.635918e-01	1.489323e+00	0.0	1.545171e+00	1.542540e+00	0.0	9.913368e-01	2.813265e-01	0.0	1.054205e+00	2.122408e-01	0.0	1.090226e+00	3.130407e-01	0.0	1.028554e+00	1.410232e-01	0.0	1.094276e+00	1.386350e-01	0.0	1.036980e+00	-2.796247e-03	0.0	1.049462e+00	1.003195e-02	0.0	1.027529e+00	1.137183e-02	0.0	9.990645e-01	4.014597e-03	0.0	1.004278e+00	3.859386e-03	0.0	1.000742e+00	8.875326e-03	0.0	9.956759e-01	7.240787e-03	0.0	9.877781e-01	6.879139e-03	0.0	9.919940e-01	5.442824e-03	0.0	9.913957e-01	1.005813e-02	0.0	9.684062e-01	3.115659e-02	0.0	9.735145e-01	2.128123e-02	0.0	9.792123e-01	2.638853e-02	0.0	9.826104e-01	7.899752e-03	0.0	9.797367e-01	1.216022e-02	0.0	9.780280e-01	7.940578e-03	0.0	9.878882e-01	3.041698e-02	0.0	9.866068e-01	2.133422e-02	0.0	9.516679e-01	5.150473e-02	0.0	9.475285e-01	3.831356e-02	0.0	9.589395e-01	4.022357e-02	0.0	9.587717e-01	1.342014e-02	0.0	9.518949e-01	1.443875e-02	0.0	9.457501e-01	1.451726e-02	0.0	9.462925e-01	1.988133e-02	0.0	9.387653e-01	2.413532e-02	0.0	9.293275e-01	2.598504e-02	0.0	9.335
[...]
POINT_DATA 1828

SCALARS Density double 1
LOOKUP_TABLE default
1.291642e+00	1.291717e+00	1.292068e+00	1.292230e+00	1.292186e+00	1.292134e+00	1.292117e+00	1.292093e+00	1.292061e+00	1.292033e+00	1.292011e+00	1.292003e+00	1.292012e+00	1.292043e+00	1.292093e+00	1.292138e+00	1.292181e+00	1.292214e+00	1.292239e+00	1.292256e+00	1.292268e+00	1.292278e+00	1.292284e+00	1.292290e+00	1.292296e+00	1.292301e+00	1.292308e+00	1.292315e+00	1.292324e+00	1.292337e+00	1.292353e+00	1.292373e+00	1.292398e+00	1.292429e+00	1.292465e+00	1.292508e+00	1.292548e+00	1.292576e+00	1.292580e+00	1.292561e+00	1.292528e+00	1.292489e+00	1.292447e+00	1.292406e+00	1.292363e+00	1.292330e+00	1.292342e+00	1.292286e+00	1.291968e+00	1.517203e+00	1.174582e+00	1.207718e+00	1.182842e+00	1.171113e+00	1.162596e+00	1.170590e+00	1.176995e+00	1.192645e+00	1.206616e+00	1.220086e+00	1.228308e+00	1.224413e+00	1.200037e+00	1.154817e+00	1.053431e+00	9.457673e-01	8.236422e-01	7.084680e-01	6.052722e-01	5.380521e-01	4.985535e-01	4.754203e-01	4.860719e-01	5.081887e-01	5.433711e-01	6.830953e-01	1.005316e+00	1.190065e+00	1.190405e+00	1.164415e+00	1.156217e+00	1.139218e+00	1.106153e+00	1.079437e+00	1.052331e+00	1.008662e+00	9.764854e-01	9.528125e-01	9.137751e-01	8.896246e-01	8.470618e-01	8.099003e-01	7.910737e-01	7.516042e-01	7.272367e-01	7.238503e-01	8.142740e-01	9.892341e-01	1.055851e+00	1.077630e+00	1.097534e+00	1.115119e+00	1.131917e+00	1.144827e+00	1.152697e+00	1.161018e+00	1.167657e+00	1.172251e+00	1.178170e+00	1.183924e+00	1.188978e+00	1.195816e+00	1.203676e+00	1.211279e+00	1.217813e+00	1.226677e+00	1.232994e+00	1.235887e+00	1.243493e+00	1.242153e+00	1.243612e+00	1.239777e+00	1.225190e+00	1.216443e+00	1.199708e+00	1.181334e+00	1.169745e+00	1.150294e+00	1.147060e+00	1.150523e+00	1.151491e+00	1.166569e+00	1.171645e+00	1.183115e+00	1.195053e+00	1.203063e+00	1.214047e+00	1.220984e+00	1.228164e+00	1.234360e+00	1.240551e+00	1.246666e+00	1.252350e+00	1.258331e+00	1.264928e+00	1.270769e+00	1.282267e+00	1.275344e+00	1.315962e+00	1.442048e+00	1.400022e+00	1.400842e+00	1.409407e+00	1.410785e+00	1.415028e+00	1.417501e+00	1.421508e+00	1.424319e+00	1.428394e+00	1.432626e+00	1.436713e+00	1.445109e+00	1.445833e+00	1.458639e+00	1.462562e+00	1.460764e+00	1.469799e+00	1.457280e+00	1.459109e+00	1.448817e+00	1.415599e+00	1.393151e+00	1.349879e+00	1.296552e+00	1.260206e+00	1.175576e+00	1.135687e+00	1.129906e+00	1.118475e+00	1.156265e+00	1.182799e+00	1.213289e+00	1.252226e+00	1.275233e+00	1.293641e+00	1.316583e+00	1.325371e+00	1.330139e+00	1.337218e+00	1.332371e+00	1.336704e+00	1.331990e+00	1.323596e+00	1.319093e+00	1.301843e+00	1.287295e+00	1.268393e+00	1.240411e+00	1.214177e+00	1.184765e+00	1.148111e+00	1.125746e+00	1.090440e+00	1.004797e+00	9.146116e-01	8.695258e-01	8.711005e-01	8.805769e-01	8.799615e-01	8.832449e-01	8.739128e-01	8.720372e-01	8.688935e-01	8.749153e-01	8.883598e-01	8.918791e-01	9.188838e-01	9.400075e-01	9.769174e-01	1.026688e+00	1.044512e+00	1.091097e+00	1.138671e+00	1.170088e+00	1.217216e+00	1.241435e+00	1.271445e+00	1.309024e+00	1.330113e+00	1.355649e+00	1.378763e+00	1.398347e+00	1.418188e+00	1.436884e+00	1.452145e+00	1.468849e+00	1.482545e+00	1.490913e+00	1.500599e+00	1.504433e+00	1.512198e+00	1.518571e+00	1.535219e+00	1.562612e+00	1.590062e+00	1.605351e+00	1.692560e+00	1.068468e+00	1.027842e+00	1.107911e+00	1.292166e+00	1.292084e+00	1.292141e+00	1.291757e+00	1.291878e+00	1.292152e+00	1.291918e+00	1.292124e+00	1.292309e+00	1.292144e+00	1.292080e+00	1.292054e+00	1.292054e+00	1.292356e+00	1.292327e+00	1.292383e+00	1.292086e+00	1.292110e+00	1.292061e+00	1.292062e+00	1.292523e+00	1.292495e+00	1.292540e+00	1.292317e+00	1.292342e+00	1.292019e+00	1.292386e+00	1.292373e+00	1.291977e+00	1.291962e+00	1.291984e+00	1.292433e+00	1.292475e+00	1.291942e+00	1.292143e+00	1.291882e+00	1.291287e+00	1.289297e+00	1.292222e+00	1.293934e+00	1.276978e+00	1.267220e+00	1.283706e+00	1.290049e+00	1.304623e+00	1.297421e+00	1.301805e+00	1.303811e+00	1.319317e+00	1.271996e+00	1.277700e+00	1.287289e+00	1.296891e+00	1.278917e+00	1.293360e+00	1.275973e+00	1.283112e+00	1.277128e+00	1.260081e+00	1.262169e+00	1.268085e+00	1.269888e+00	1.266709e+00	1.264297e+00	1.275231e+00	1.273738e+00	1.253422e+00	1.243722e+00	1.255008e+00	1.245834e+00	1.239170e+00	1.233105e+00	1.235517e+00	1.229710e+00	1.220322e+00	1.222612e+00	1.425757e+00	1.178333e+00	1.151079e+00	1.163960e+00	1.136507e+00	1.139112e+00	9.417273e-01	8.812343e-01	1.052138e+00	1.036813e+00	1.063470e+00	1.064580e+00	1.033739e+00	1.151880e+00	1.101217e+00	1.115813e+00	1.153966e+00	1.143022e+00	1.135163e+00	1.099429e+00	1.299290e+00	1.287495e+00	1.281025e+00	1.217566e+00	1.219891e+00	1.225836e+00	1.239057e+00	1.233358e+00	1.219602e+00	1.208422e+00	1.199184e+00	1.206572e+00	1.420583e+00	1.240934e+00	1.239896e+00	1.250732e+00	1.172863e+00	1.166250e+00	1.181719e+00	1.175825e+00	1.192243e+00	1.159444e+00	1.170118e+00	1.275795e+00	1.266198e+00	1.259650e+00	1.209099e+00	1.162795e+00	1.164059e+00	1.236775e+00	1.239334e+00	1.233462e+00	1.219962e+00	1.172175e+00	1.240529e+00	1.228386e+00	1.177661e+00	1.171791e+00	1.242538e+00	1.242124e+00	1.239210e+00	1.221724e+00	1.225324e+00	1.391444e+00	1.410581e+00	1.404801e+00	1.378129e+00	1.354221e+00	1.389684e+00	1.609615e+00	1.622171e+00	1.600196e+00	1.187565e+00	1.230573e+00	1.297644e+00	1.284439e+00	1.245500e+00	1.315399e+00	1.357036e+00	1.401641e+00	1.302314e+00	1.283838e+00	1.279777e+00	1.405601e+00	1.450137e+00	1.446934e+00	1.457299e+00	1.176896e+00	1.176929e+00	1.153662e+00	1.454083e+00	1.433950e+00	1.435961e+00	1.442604e+00	1.451269e+00	1.443121e+00	1.448142e+00	1.213981e+00	1.202623e+00	1.185482e+00	1.438612e+00	1.434914e+00	1.386475e+00	1.369440e+00	1.375522e+00	1.430812e+00	1.424128e+00	1.430618e+00	1.423626e+00	1.417220e+00	1.264323e+00	1.281055e+00	1.265030e+00	1.283258e+00	1.300924e+00	1.297459e+00	1.289245e+00	1.303485e+00	1.298841e+00	1.309550e+00	5.263820e-01	5.573474e-01	9.535429e-01	8.427762e-01	8.579078e-01	8.475465e-01	8.345283e-01	1.291759e+00	1.292615e+00	1.289317e+00	1.129460e+00	1.131680e+00	1.048715e+00	9.296860e-01	1.018650e+00	9.427754e-01	1.242675e+00	1.240306e+00	1.221235e+00	1.222130e+00	1.230617e+00	1.230746e+00	1.228510e+00	1.225086e+00	1.214159e+00	1.175983e+00	1.180758e+00	1.184359e+00	1.184568e+00	1.648588e+00	1.314076e+00	1.331191e+00	1.289126e+00	1.612434e+00	1.594629e+00	1.580338e+00	1.550144e+00	1.533990e+00	1.519683e+00	1.308847e+00	1.310252e+00	1.319385e+00	1.517222e+00	1.521854e+00	1.498215e+00	1.513198e+00	1.504585e+00	1.505735e+00	1.159969e+00	1.167128e+00	1.215957e+00	1.211009e+00	1.210515e+00	1.199580e+00	1.204119e+00	1.174112e+00	1.163086e+00	1.174120e+00	1.227334e+00	1.291895e+00	1.291825e+00	1.291832e+00	1.143423e+00	1.140217e+00	1.132324e+00	1.006692e+00	1.084656e+00	1.112607e+00	1.043683e+00	9.342832e-01	1.285926e+00	1.285137e+00	1.281374e+00	1.292029e+00	8.499272e-01	7.966813e-01	8.182267e-01	1.290600e+00	1.291297e+00	1.291205e+00	1.095975e+00	1.075121e+00	1.150681e+00	1.174230e+00	1.185097e+00	1.131211e+00	1.192543e+00	1.216462e+00	1.184334e+00	1.156162e+00	9.196784e-01	8.586013e-01	8.696656e-01	8.992826e-01	1.105680e+00	1.089274e+00	1.057122e+00	1.154998e+00	1.160395e+00	5.449083e-01	7.723768e-01	6.430491e-01	8.813993e-01	9.063636e-01	1.253128e+00	1.270768e+00	1.253736e+00	1.245901e+00	1.162202e+00	1.216335e+00	1.320899e+00	1.315230e+00	1.296568e+00	1.307829e+00	1.251080e+00	1.226459e+00	1.217268e+00	7.584260e-01	7.888410e-01	1.290031e+00	1.289730e+00	1.289048e+00	1.292084e+00	1.292043e+00	1.202993e+00	1.202178e+00	1.222924e+00	1.289976e+00	1.291028e+00	1.291594e+00	1.292157e+00	1.187926e+00	1.292169e+00	1.185613e+00	1.138189e+00	1.216859e+00	1.225855e+00	1.288565e+00	1.281921e+00	1.292217e+00	1.292239e+00	1.292229e+00	1.292100e+00	1.291985e+00	1.291925e+00	1.279065e+00	1.281758e+00	1.294537e+00	1.292254e+00	1.292229e+00	1.292401e+00	1.292306e+00	1.292268e+00	1.292278e+00	1.292285e+00	1.292265e+00	1.292244e+00	1.292280e+00	1.292289e+00	1.292291e+00	1.292313e+00	1.292300e+00	1.292316e+00	1.292321e+00	1.292331e+00	1.292352e+00	1.292362e+00	1.292392e+00	1.292385e+00	1.292429e+00	1.292351e+00	1.292336e+00	1.292413e+00	1.292368e+00	9.892419e-01	1.082378e+00	1.292437e+00	1.292334e+00	1.292341e+00	1.292446e+00	1.292409e+00	1.293929e+00	1.293972e+00	1.294722e+00	1.297709e+00	1.299952e+00	1.299976e+00	1.292457e+00	1.296668e+00	1.292566e+00	1.292599e+00	1.292549e+00	1.490475e+00	1.482187e+00	1.488861e+00	1.471753e+00	1.412490e+00	1.434704e+00	1.425761e+00	1.368684e+00	1.347431e+00	1.368600e+00	1.294129e+00	1.287282e+00	1.288034e+00	1.325393e+00	1.328270e+00	1.321389e+00	1.412599e+00	1.292627e+00	1.292679e+00	1.292644e+00	1.424899e+00	1.426312e+00	1.367234e+00	1.381549e+00	1.287108e+00	1.237194e+00	1.350690e+00	1.318687e+00	1.299611e+00	1.327350e+00	1.292605e+00	1.292553e+00	1.292585e+00	1.296247e+00	1.293658e+00	1.298010e+00	1.212354e+00	1.237369e+00	1.246776e+00	1.295431e+00	1.295824e+00	1.338573e+00	1.283467e+00	1.278976e+00	1.295026e+00	1.132296e+00	1.015553e+00	1.167478e+00	1.091056e+00	1.112621e+00	1.074799e+00	1.209218e+00	1.159213e+00	1.192677e+00	1.052445e+00	1.036459e+00	8.895376e-01	8.950949e-01	1.292556e+00	1.292586e+00	9.243106e-01	9.301599e-01	9.658444e-01	9.248434e-01	9.080163e-01	8.978419e-01	1.329988e+00	8.937743e-01	9.252109e-01	9.062870e-01	9.232941e-01	9.230387e-01	9.090919e-01	9.024028e-01	1.327934e+00	1.299116e+00	1.295682e+00	1.296071e+00	1.292295e+00	1.232753e+00	1.208044e+00	1.292628e+00	1.292862e+00	1.292577e+00	1.403042e+00	1.407413e+00	1.406455e+00	1.292761e+00	1.292548e+00	1.292476e+00	1.291928e+00	1.291908e+00	1.291741e+00	5.046319e-01	4.916423e-01	4.989644e-01	1.292102e+00	1.292475e+00	1.292560e+00	1.292321e+00	1.292306e+00	1.291744e+00	1.291746e+00	1.291968e+00	1.291984e+00	1.292792e+00	1.292772e+00	1.292936e+00	1.292500e+00	1.292492e+00	1.292550e+00	1.292460e+00	1.292615e+00	1.292490e+00	1.291893e+00	1.291838e+00	1.292068e+00	1.292063e+00	1.292127e+00	1.292193e+00	1.287895e+00	1.284011e+00	1.292178e+00	1.292189e+00	1.291796e+00	1.291955e+00	1.291984e+00	1.291869e+00	1.291969e+00	1.292261e+00	1.292153e+00	1.292751e+00	1.292668e+00	1.292568e+00	1.346156e+00	1.335629e+00	1.328912e+00	1.291865e+00	1.291982e+00	1.291915e+00	1.292253e+00	1.292004e+00	1.292367e+00	1.292365e+00	1.292737e+00	1.292676e+00	1.292609e+00	1.292466e+00	1.292321e+00	1.292340e+00	1.292358e+00	1.292258e+00	1.292593e+00	1.292576e+00	1.292299e+00	1.292376e+00	1.292387e+00	1.291812e+00	1.291968e+00	1.292000e+00	1.292146e+00	1.292117e+00	1.292120e+00	1.292481e+00	1.292441e+00	1.292141e+00	1.292231e+00	1.292270e+00	1.291939e+00	1.292097e+00	1.292312e+00	1.292193e+00	1.412232e+00	1.409556e+00	1.291631e+00	1.291561e+00	1.295762e+00	1.265248e+00	1.283612e+00	1.293191e+00	1.291712e+00	1.293357e+00	1.292293e+00	1.292330e+00	1.291815e+00	1.291753e+00	1.291965e+00	1.292004e+00	1.291928e+00	1.291595e+00	1.292087e+00	1.292314e+00	1.291858e+00	1.292172e+00	1.292372e+00	1.292150e+00	1.292491e+00	1.292216e+00	1.292334e+00	1.292296e+00	1.292286e+00	1.292239e+00	1.292529e+00	1.292500e+00	1.292381e+00	1.291992e+00	1.292411e+00	1.292370e+00	1.292035e+00	1.292523e+00	1.292609e+00	1.291848e+00	1.291217e+00	1.292621e+00	1.292670e+00	1.292614e+00	1.292440e+00	1.292560e+00	1.291955e+00	1.291967e+00	1.291935e+00	1.291988e+00	1.291910e+00	1.292004e+00	1.293128e+00	1.292883e+00	1.292753e+00	1.292493e+00	1.292573e+00	1.291924e+00	1.291932e+00	1.292564e+00	1.292653e+00	1.292723e+00	1.292744e+00	1.292091e+00	1.292066e+00	1.292421e+00	1.292384e+00	1.292411e+00	1.292043e+00	1.292072e+00	1.293112e+00	1.292727e+00	1.292706e+00	1.292948e+00	1.292479e+00	1.292575e+00	1.292910e+00	1.293278e+00	1.468991e+00	1.485091e+00	1.431979e+00	1.292425e+00	1.291607e+00	1.291723e+00	1.292061e+00	1.291992e+00	1.292252e+00	1.292385e+00	1.292092e+00	1.292487e+00	1.292498e+00	1.292029e+00	1.291952e+00	1.291934e+00	1.292662e+00	1.292186e+00	1.292512e+00	1.292654e+00	1.292039e+00	1.292450e+00	1.291896e+00	1.291494e+00	1.291294e+00	1.291590e+00	1.291525e+00	1.293477e+00	1.293103e+00	1.291686e+00	1.290872e+00	1.291598e+00	1.292789e+00	1.293406e+00	1.293409e+00	1.294626e+00	1.293368e+00	1.293788e+00	1.294417e+00	1.292462e+00	1.292333e+00	1.292397e+00	1.293498e+00	1.291286e+00	1.291008e+00	1.290683e+00	1.290084e+00	1.288966e+00	1.293821e+00	1.294325e+00	1.295948e+00	1.294598e+00	1.294096e+00	1.316097e+00	1.293430e+00	1.291507e+00	1.297344e+00	1.294595e+00	1.293232e+00	1.291908e+00	7.355099e-01	7.323128e-01	6.332903e-01	1.291849e+00	1.391824e+00	1.396330e+00	1.389508e+00	1.290546e+00	1.290077e+00	1.293082e+00	1.295853e+00	1.294621e+00	1.293725e+00	1.292839e+00	1.291358e+00	1.289487e+00	1.289508e+00	9.906718e-01	9.685652e-01	1.069253e+00	1.292905e+00	1.292643e+00	1.296609e+00	1.295080e+00	1.295355e+00	1.294537e+00	1.288321e+00	1.293217e+00	1.291529e+00	1.294760e+00	1.288141e+00	1.265116e+00	1.287756e+00	1.296522e+00	1.290686e+00	1.299528e+00	1.291907e+00	1.293902e+00	8.531879e-01	8.046788e-01	1.295061e+00	1.294424e+00	1.299041e+00	1.292954e+00	1.288814e+00	1.284563e+00	1.286913e+00	1.290553e+00	1.298754e+00	1.312716e+00	1.315828e+00	1.323141e+00	1.295768e+00	1.293252e+00	1.284538e+00	1.297970e+00	1.329132e+00	1.338555e+00	1.348740e+00	1.277026e+00	8.368473e-01	7.983171e-01	1.289170e+00	1.290290e+00	1.284253e+00	1.290496e+00	1.285358e+00	9.476933e-01	9.388638e-01	1.295372e+00	1.259206e+00	1.233358e+00	1.271045e+00	1.303535e+00	1.303867e+00	1.302890e+00	1.304144e+00	1.300160e+00	1.296381e+00	1.290432e+00	1.301590e+00	1.293840e+00	1.291307e+00	1.288905e+00	1.263708e+00	1.247730e+00	1.257584e+00	1.323017e+00	1.375701e+00	1.319102e+00	1.331232e+00	1.268190e+00	1.337964e+00	1.385441e+00	1.409222e+00	1.401078e+00	1.298587e+00	1.292805e+00	1.305752e+00	1.306024e+00	1.293765e+00	1.287597e+00	1.291227e+00	1.300365e+00	1.367232e+00	1.408523e+00	1.301379e+00	1.295131e+00	1.293708e+00	1.298042e+00	1.303950e+00	1.300106e+00	1.282645e+00	1.226324e+00	1.255777e+00	1.328551e+00	1.301592e+00	1.284241e+00	1.283956e+00	1.282550e+00	1.301518e+00	1.284428e+00	1.128255e+00	1.118915e+00	9.843255e-01	9.459557e-01	9.732893e-01	1.317505e+00	1.312344e+00	1.312324e+00	1.319128e+00	1.308794e+00	1.282568e+00	1.355545e+00	1.374490e+00	1.276621e+00	1.301975e+00	1.239069e+00	1.271416e+00	1.239625e+00	1.215071e+00	1.311299e+00	1.306544e+00	1.307323e+00	1.300236e+00	1.308793e+00	1.246206e+00	1.237731e+00	1.303160e+00	1.292832e+00	1.305545e+00	1.299008e+00	1.312568e+00	1.302749e+00	1.291783e+00	1.279724e+00	1.495141e+00	1.486760e+00	1.513291e+00	1.164970e+00	1.177456e+00	1.095417e+00	1.247643e+00	1.258126e+00	1.319375e+00	1.321981e+00	1.244933e+00	1.243356e+00	1.215603e+00	1.154240e+00	1.226762e+00	1.284289e+00	1.297111e+00	1.301147e+00	1.288185e+00	1.390244e+00	1.289722e+00	1.141612e+00	1.166227e+00	1.094327e+00	1.220858e+00	1.314563e+00	8.777561e-01	9.956845e-01	1.297577e+00	1.332275e+00	1.302507e+00	1.285173e+00	1.291626e+00	1.199045e+00	1.240246e+00	1.243955e+00	1.257396e+00	1.407965e+00	1.362455e+00	1.284608e+00	1.224172e+00	1.309677e+00	1.310584e+00	1.304817e+00	1.385297e+00	1.358305e+00	1.375506e+00	1.329680e+00	1.359400e+00	1.370290e+00	1.309364e+00	1.273344e+00	1.282512e+00	1.306348e+00	1.071789e+00	1.347456e+00	1.342816e+00	1.335654e+00	1.328153e+00	1.217095e+00	1.304958e+00	1.331253e+00	1.325727e+00	1.249849e+00	1.228917e+00	1.205007e+00	1.281901e+00	1.281140e+00	1.321428e+00	1.344944e+00	1.343974e+00	1.350948e+00	1.168410e+00	1.244213e+00	1.155670e+00	1.225242e+00	1.438268e+00	1.407195e+00	1.433565e+00	1.383286e+00	1.405579e+00	1.264934e+00	1.268102e+00	1.261189e+00	1.249141e+00	1.368709e+00	1.410923e+00	1.137607e+00	1.072792e+00	1.250661e+00	1.146740e+00	1.281000e+00	1.066131e+00	1.035022e+00	9.377533e-01	1.334942e+00	1.326966e+00	1.324635e+00	8.884724e-01	1.093607e+00	1.366044e+00	1.345313e+00	1.352046e+00	1.290568e+00	1.267310e+00	1.281208e+00	1.193793e+00	1.158349e+00	1.163304e+00	1.242371e+00	1.449482e+00	1.474308e+00	1.475146e+00	1.377531e+00	1.335614e+00	1.336997e+00	1.278708e+00	1.288433e+00	1.246682e+00	1.442367e+00	1.426773e+00	1.385608e+00	1.289157e+00	1.298735e+00	1.460927e+00	1.466248e+00	1.436882e+00	1.419408e+00	1.371115e+00	1.380060e+00	1.277979e+00	1.219539e+00	1.288788e+00	1.235641e+00	1.232943e+00	1.354049e+00	1.035350e+00	1.333593e+00	1.265273e+00	1.286396e+00	1.283549e+00	1.279128e+00	1.130139e+00	1.136835e+00	1.110898e+00	1.207622e+00	1.090979e+00	1.277686e+00	1.280011e+00	1.288620e+00	1.297034e+00	1.361637e+00	1.084056e+00	1.089069e+00	1.383466e+00	1.296070e+00	9.271486e-01	9.661495e-01	9.043724e-01	9.906420e-01	1.352998e+00	1.361866e+00	1.182012e+00	1.193918e+00	1.213959e+00	8.833316e-01	1.271324e+00	1.253140e+00	1.245424e+00	1.249441e+00	1.248919e+00	1.308436e+00	1.323395e+00	1.340490e+00	1.218438e+00	1.201680e+00	1.193564e+00	1.255964e+00	1.434443e+00	1.116048e+00	1.146292e+00	9.143628e-01	1.262447e+00	1.310333e+00	1.317188e+00	1.168983e+00	1.395636e+00	1.141629e+00	1.230570e+00	1.408782e+00	1.255992e+00	1.255141e+00	1.192223e+00	1.191558e+00	1.203043e+00	1.093824e+00	1.169068e+00	9.685775e-01	7.418616e-01	8.424938e-01	1.045396e+00	1.442262e+00	1.464395e+00	1.345967e+00	9.367576e-01	1.290616e+00	1.277703e+00	1.268875e+00	1.217539e+00	9.277729e-01	9.046288e-01	9.318615e-01	9.867338e-01	9.769533e-01	1.031060e+00	1.081756e+00	1.234142e+00	1.271119e+00	1.261319e+00	1.256834e+00	1.277425e+00	1.259252e+00	1.250520e+00	1.239953e+00	1.031983e+00	1.227041e+00	1.473366e+00	1.460029e+00	1.384947e+00	1.230421e+00	1.271228e+00	1.240971e+00	1.259831e+00	1.413869e+00	1.406386e+00	9.830391e-01	1.123501e+00	1.238088e+00	1.257672e+00	1.234617e+00	1.241367e+00	1.249536e+00	1.359887e+00	1.352954e+00	1.350711e+00	1.244956e+00	1.249214e+00	1.416780e+00	1.166232e+00	9.766678e-01	1.287010e+00	1.273203e+00	1.379247e+00	1.348362e+00	1.396645e+00	1.380204e+00	1.399425e+00	1.199009e+00	1.181032e+00	1.186991e+00	1.160472e+00	1.276081e+00	1.300199e+00	1.311206e+00	1.295813e+00	1.335570e+00	1.341648e+00	1.036993e+00	1.125850e+00	1.110996e+00	1.098597e+00	1.110572e+00	1.336859e+00	7.682874e-01	1.053871e+00	6.568859e-01	9.237561e-01	1.005988e+00	1.033043e+00	1.007333e+00	9.890733e-01	1.292371e+00	1.185028e+00	1.197440e+00	1.227284e+00	1.241332e+00	1.236417e+00	8.898675e-01	8.885527e-01	9.796120e-01	1.357272e+00	1.390904e+00	1.366277e+00	1.232625e+00	1.288775e+00	1.264565e+00	9.105109e-01	9.850154e-01	9.489027e-01	1.574488e+00	1.479357e+00	1.289572e+00	1.286960e+00	1.304964e+00	1.291223e+00	1.307412e+00	1.307344e+00	1.151063e+00	1.029692e+00	1.014222e+00	9.708163e-01	1.026375e+00	9.816826e-01	9.912108e-01	1.428808e+00	1.424919e+00	1.472672e+00	1.444794e+00	1.464936e+00	1.324949e+00	1.328000e+00	1.373463e+00	1.254205e+00	1.366238e+00	1.384164e+00	1.057199e+00	1.192169e+00	1.196643e+00	1.230924e+00	1.213012e+00	1.221017e+00	1.207211e+00	1.291615e+00	1.280225e+00	1.320380e+00	1.265498e+00	1.235350e+00	1.328873e+00	1.273188e+00	1.232740e+00	1.358919e+00	1.363597e+00	1.116001e+00	6.272583e-01	6.164320e-01	5.418719e-01	9.485216e-01	1.242228e+00	1.266521e+00	1.032481e+00	1.316570e+00	1.307794e+00	1.321653e+00	1.177026e+00	1.165504e+00	9.313387e-01	8.024394e-01	7.852285e-01	7.506267e-01	8.690854e-01	8.785800e-01	1.426475e+00	1.412985e+00	1.429155e+00	1.411900e+00	1.422396e+00	1.415384e+00	1.091685e+00	1.178677e+00	1.122937e+00	1.143836e+00	1.374027e+00	1.282777e+00	1.321480e+00	9.671191e-01	1.222663e+00	1.303543e+00	1.336466e+00	1.424487e+00	1.124511e+00	1.215537e+00	1.212591e+00	1.204824e+00	1.361335e+00	9.253454e-01	1.155122e+00	8.174085e-01	7.204685e-01	5.857765e-01	1.446543e+00	1.474359e+00	1.524944e+00	9.813204e-01	1.015577e+00	1.460909e+00	1.449008e+00	1.453621e+00	1.274950e+00	9.379756e-01	1.242377e+00	1.232573e+00	1.204271e+00	1.069385e+00	1.340029e+00	1.303468e+00	1.216032e+00	1.188814e+00	1.220314e+00	1.279890e+00	1.279472e+00	1.282761e+00	1.240693e+00	1.239485e+00	9.090730e-01	1.272448e+00	1.001142e+00	1.023221e+00	1.095544e+00	1.416436e+00	1.401736e+00	1.154543e+00	1.110919e+00	1.079186e+00	7.209029e-01	9.445926e-01	1.287363e+00	1.360828e+00	1.412268e+00	1.283796e+00	1.288230