# vtk DataFile Version 3.0
vtk output
ASCII
DATASET UNSTRUCTURED_GRID
POINTS 198 double
0.000000e+00	0.000000e+00	0.0	3.476324e-03	3.593769e-03	0.0	7.245368e-03	7.123303e-03	0.0	1.175521e-02	1.005228e-02	0.0	1.652949e-02	1.290987e-02	0.0	2.173702e-02	1.540511e-02	0.0	2.718008e-02	1.787379e-02	0.0	3.294650e-02	2.012521e-02	0.0	3.893753e-02	2.238851e-02	0.0	4.518774e-02	2.458293e-02	0.0	5.164511e-02	2.686143e-02	0.0	5.831201e-02	2.922935e-02	0.0	6.513601e-02	3.183552e-02	0.0	7.213851e-02	3.463332e-02	0.0	7.929173e-02	3.768826e-02	0.0	8.667138e-02	4.082269e-02	0.0	9.448615e-02	4.350775e-02	0.0	1.026381e-01	4.586068e-02	0.0	1.112736e-01	4.731326e-02	0.0	1.202030e-01	4.816046e-02	0.0	1.294577e-01	4.799105e-02	0.0	1.389527e-01	4.764093e-02	0.0	1.486599e-01	4.664575e-02	0.0	1.586162e-01	4.562503e-02	0.0	1.688343e-01	4.472624e-02	0.0	1.793024e-01	4.383884e-02	0.0	1.900268e-01	4.322723e-02	0.0	2.010204e-01	4.329652e-02	0.0	2.122532e-01	4.336732e-02	0.0	2.236674e-01	4.434805e-02	0.0	2.352930e-01	4.565052e-02	0.0	2.471266e-01	4.708871e-02	0.0	2.591114e-01	4.903296e-02	0.0	2.713049e-01	5.101110e-02	0.0	2.837040e-01	5.299608e-02	0.0	2.962990e-01	5.499593e-02	0.0	3.090831e-01	5.699022e-02	0.0	3.221167e-01	5.846394e-02	0.0	3.353162e-01	5.995642e-02	0.0	3.487048e-01	6.106477e-02	0.0	3.622678e-01	6.182602e-02	0.0	3.759637e-01	6.257786e-02	0.0	3.898008e-01	6.252701e-02	0.0	4.037451e-01	6.247577e-02	0.0	4.177671e-01	6.196361e-02	0.0	4.318544e-01	6.102855e-02	0.0	4.460056e-01	6.006949e-02	0.0	4.601433e-01	5.840206e-02	0.0	4.743178e-01	5.673029e-02	0.0	4.884883e-01	5.485737e-02	0.0	5.026421e-01	5.280145e-02	0.0	5.167886e-01	5.074629e-02	0.0	5.309067e-01	4.865147e-02	0.0	5.449883e-01	4.656208e-02	0.0	5.590321e-01	4.457359e-02	0.0	5.730244e-01	4.269207e-02	0.0	5.869374e-01	4.082122e-02	0.0	6.007741e-01	3.909218e-02	0.0	6.145051e-01	3.738093e-02	0.0	6.281181e-01	3.569461e-02	0.0	6.416010e-01	3.403749e-02	0.0	6.549403e-01	3.239802e-02	0.0	6.681170e-01	3.071631e-02	0.0	6.811273e-01	2.904865e-02	0.0	6.939641e-01	2.742196e-02	0.0	7.066201e-01	2.585448e-02	0.0	7.190819e-01	2.431106e-02	0.0	7.313693e-01	2.304724e-02	0.0	7.434537e-01	2.187194e-02	0.0	7.553340e-01	2.090862e-02	0.0	7.670218e-01	2.041442e-02	0.0	7.784796e-01	1.992994e-02	0.0	7.897083e-01	2.014706e-02	0.0	8.006985e-01	2.043182e-02	0.0	8.114374e-01	2.091893e-02	0.0	8.219259e-01	2.151701e-02	0.0	8.321716e-01	2.200269e-02	0.0	8.421746e-01	2.233290e-02	0.0	8.519269e-01	2.254261e-02	0.0	8.614258e-01	2.214683e-02	0.0	8.706741e-01	2.176150e-02	0.0	8.796350e-01	2.089511e-02	0.0	8.883389e-01	1.993354e-02	0.0	8.967798e-01	1.887337e-02	0.0	9.049451e-01	1.760564e-02	0.0	9.128698e-01	1.637527e-02	0.0	9.205348e-01	1.505156e-02	0.0	9.279611e-01	1.374268e-02	0.0	9.351533e-01	1.245854e-02	0.0	9.421132e-01	1.118760e-02	0.0	9.488492e-01	9.956907e-03	0.0	9.553599e-01	8.735148e-03	0.0	9.616551e-01	7.553804e-03	0.0	9.677351e-01	6.390431e-03	0.0	9.736080e-01	5.262823e-03	0.0	9.792754e-01	4.156189e-03	0.0	9.847443e-01	3.081271e-03	0.0	9.900185e-01	2.031859e-03	0.0	9.951019e-01	1.004207e-03	0.0	1.000000e+00	0.000000e+00	0.0	9.950040e-01	1.973251e-04	0.0	9.898190e-01	3.932190e-04	0.0	9.844384e-01	5.409352e-04	0.0	9.788579e-01	6.445112e-04	0.0	9.730731e-01	7.238075e-04	0.0	9.670789e-01	7.452760e-04	0.0	9.608712e-01	7.436162e-04	0.0	9.544453e-01	6.767839e-04	0.0	9.477967e-01	5.931480e-04	0.0	9.409225e-01	4.145189e-04	0.0	9.338169e-01	2.298748e-04	0.0	9.264795e-01	-6.916696e-05	0.0	9.189038e-01	-4.010785e-04	0.0	9.110928e-01	-8.581433e-04	0.0	9.030476e-01	-1.511105e-03	0.0	8.947544e-01	-2.184192e-03	0.0	8.862715e-01	-3.403406e-03	0.0	8.775447e-01	-4.716519e-03	0.0	8.686421e-01	-6.447868e-03	0.0	8.595906e-01	-8.736270e-03	0.0	8.502939e-01	-1.110043e-02	0.0	8.410219e-01	-1.442600e-02	0.0	8.315082e-01	-1.783825e-02	0.0	8.217922e-01	-2.144126e-02	0.0	8.118592e-01	-2.519097e-02	0.0	8.016221e-01	-2.882950e-02	0.0	7.909861e-01	-3.206976e-02	0.0	7.801149e-01	-3.538167e-02	0.0	7.686952e-01	-3.742985e-02	0.0	7.570256e-01	-3.944847e-02	0.0	7.450474e-01	-4.085346e-02	0.0	7.327825e-01	-4.177052e-02	0.0	7.202975e-01	-4.265214e-02	0.0	7.075790e-01	-4.312134e-02	0.0	6.946589e-01	-4.359797e-02	0.0	6.815499e-01	-4.416624e-02	0.0	6.682606e-01	-4.479569e-02	0.0	6.548031e-01	-4.549118e-02	0.0	6.412152e-01	-4.665405e-02	0.0	6.274786e-01	-4.782966e-02	0.0	6.136409e-01	-4.935242e-02	0.0	5.997019e-01	-5.109794e-02	0.0	5.856628e-01	-5.292449e-02	0.0	5.715964e-01	-5.523864e-02	0.0	5.574484e-01	-5.756622e-02	0.0	5.432897e-01	-6.021488e-02	0.0	5.291121e-01	-6.305649e-02	0.0	5.149017e-01	-6.592846e-02	0.0	5.007017e-01	-6.896390e-02	0.0	4.864942e-01	-7.200095e-02	0.0	4.722669e-01	-7.490407e-02	0.0	4.580455e-01	-7.772182e-02	0.0	4.438483e-01	-8.045618e-02	0.0	4.296095e-01	-8.264655e-02	0.0	4.154380e-01	-8.482657e-02	0.0	4.012864e-01	-8.650453e-02	0.0	3.871969e-01	-8.790222e-02	0.0	3.732092e-01	-8.917809e-02	0.0	3.593056e-01	-8.992901e-02	0.0	3.455389e-01	-9.067254e-02	0.0	3.319089e-01	-9.107085e-02	0.0	3.184349e-01	-9.132805e-02	0.0	3.051328e-01	-9.148726e-02	0.0	2.920121e-01	-9.134588e-02	0.0	2.790839e-01	-9.120658e-02	0.0	2.663709e-01	-9.065363e-02	0.0	2.538721e-01	-8.998001e-02	0.0	2.416081e-01	-8.911415e-02	0.0	2.296149e-01	-8.771827e-02	0.0	2.178514e-01	-8.634912e-02	0.0	2.064351e-01	-8.429807e-02	0.0	1.952913e-01	-8.206910e-02	0.0	1.844332e-01	-7.970419e-02	0.0	1.739772e-01	-7.673498e-02	0.0	1.637639e-01	-7.383464e-02	0.0	1.539147e-01	-7.062678e-02	0.0	1.443791e-01	-6.727627e-02	0.0	1.350858e-01	-6.401087e-02	0.0	1.261758e-01	-6.045530e-02	0.0	1.175051e-01	-5.699332e-02	0.0	1.091011e-01	-5.355673e-02	0.0	1.009867e-01	-5.008706e-02	0.0	9.310521e-02	-4.671701e-02	0.0	8.547984e-02	-4.338801e-02	0.0	7.809209e-02	-4.013638e-02	0.0	7.092576e-02	-3.699233e-02	0.0	6.396485e-02	-3.398459e-02	0.0	5.722362e-02	-3.107176e-02	0.0	5.063573e-02	-2.840384e-02	0.0	4.424762e-02	-2.585853e-02	0.0	3.804133e-02	-2.347302e-02	0.0	3.203081e-02	-2.119919e-02	0.0	2.628166e-02	-1.885809e-02	0.0	2.078510e-02	-1.647709e-02	0.0	1.567139e-02	-1.377139e-02	0.0	1.095964e-02	-1.079977e-02	0.0	6.598101e-03	-7.652007e-03	0.0	2.819399e-03	-4.096086e-03	0.0	
CELLS 198	594
2	26	27	2	27	28	2	28	29	2	29	30	2	30	31	2	31	32	2	32	33	2	33	34	2	34	35	2	35	36	2	36	37	2	37	38	2	38	39	2	39	40	2	40	41	2	41	42	2	42	43	2	43	44	2	44	45	2	45	46	2	46	47	2	47	48	2	48	49	2	49	50	2	50	51	2	51	52	2	52	53	2	53	54	2	54	55	2	55	56	2	56	57	2	57	58	2	58	59	2	59	60	2	60	61	2	61	62	2	62	63	2	63	64	2	64	65	2	65	66	2	66	67	2	67	68	2	68	69	2	69	70	2	70	71	2	71	72	2	72	73	2	73	74	2	74	75	2	75	76	2	76	77	2	77	78	2	78	79	2	79	80	2	80	81	2	81	82	2	82	83	2	83	84	2	84	85	2	85	86	2	86	87	2	87	88	2	88	89	2	89	90	2	90	91	2	91	92	2	92	93	2	93	94	2	94	95	2	95	96	2	96	97	2	97	98	2	98	99	2	99	100	2	100	101	2	101	102	2	102	103	2	103	104	2	104	105	2	105	106	2	106	107	2	107	108	2	108	109	2	109	110	2	110	111	2	111	112	2	112	113	2	113	114	2	114	115	2	115	116	2	116	117	2	117	118	2	118	119	2	119	120	2	120	121	2	121	122	2	122	123	2	123	124	2	124	125	2	125	126	2	126	127	2	127	128	2	128	129	2	129	130	2	130	131	2	131	132	2	132	133	2	133	134	2	134	135	2	135	136	2	136	137	2	137	138	2	138	139	2	139	140	2	140	141	2	141	142	2	142	143	2	143	144	2	144	145	2	145	146	2	146	147	2	147	148	2	148	149	2	149	150	2	150	151	2	151	152	2	152	153	2	153	154	2	154	155	2	155	156	2	156	157	2	157	158	2	0	1	2	1	2	2	2	3	2	3	4	2	4	5	2	5	6	2	6	7	2	7	8	2	8	9	2	9	10	2	10	11	2	11	12	2	12	13	2	13	14	2	14	15	2	15	16	2	16	17	2	17	18	2	18	19	2	19	20	2	20	21	2	21	22	2	22	23	2	23	24	2	24	25	2	25	26	2	158	159	2	159	160	2	160	161	2	161	162	2	162	163	2	163	164	2	164	165	2	165	166	2	166	167	2	167	168	2	168	169	2	169	170	2	170	171	2	171	172	2	172	173	2	173	174	2	174	175	2	175	176	2	176	177	2	177	178	2	178	179	2	179	180	2	180	181	2	181	182	2	182	183	2	183	184	2	184	185	2	185	186	2	186	187	2	187	188	2	188	189	2	189	190	2	190	191	2	191	192	2	192	193	2	193	194	2	194	195	2	195	196	2	196	197	2	197	0	
CELL_TYPES 198
3	3	3	3	3	3	3	3	3	3	3	3	3	3	3	3	3	3	3	3	3	3	3	3	3	3	3	3	3	3	3	3	3	3	3	3	3	3	3	3	3	3	3	3	3	3	3	3	3	3	3	3	3	3	3	3	3	3	3	3	3	3	3	3	3	3	3	3	3	3	3	3	3	3	3	3	3	3	3	3	3	3	3	3	3	3	3	3	3	3	3	3	3	3	3	3	3	3	3	3	3	3	3	3	3	3	3	3	3	3	3	3	3	3	3	3	3	3	3	3	3	3	3	3	3	3	3	3	3	3	3	3	3	3	3	3	3	3	3	3	3	3	3	3	3	3	3	3	3	3	3	3	3	3	3	3	3	3	3	3	3	3	3	3	3	3	3	3	3	3	3	3	3	3	3	3	3	3	3	3	3	3	3	3	3	3	3	3	3	3	3	3	3	3	3	3	3	3	
POINT_DATA 198

SCALARS Density double 1
LOOKUP_TABLE default
1.517203e+00	1.174582e+00	1.207718e+00	1.182842e+00	1.171113e+00	1.162596e+00	1.170590e+00	1.176995e+00	1.192645e+00	1.206616e+00	1.220086e+00	1.228308e+00	1.224413e+00	1.200037e+00	1.154817e+00	1.053431e+00	9.457673e-01	8.236422e-01	7.084680e-01	6.052722e-01	5.380521e-01	4.985535e-01	4.754203e-01	4.860719e-01	5.081887e-01	5.433711e-01	6.830953e-01	1.005316e+00	1.190065e+00	1.190405e+00	1.164415e+00	1.156217e+00	1.139218e+00	1.106153e+00	1.079437e+00	1.052331e+00	1.008662e+00	9.764854e-01	9.528125e-01	9.137751e-01	8.896246e-01	8.470618e-01	8.099003e-01	7.910737e-01	7.516042e-01	7.272367e-01	7.238503e-01	8.142740e-01	9.892341e-01	1.055851e+00	1.077630e+00	1.097534e+00	1.115119e+00	1.131917e+00	1.144827e+00	1.152697e+00	1.161018e+00	1.167657e+00	1.172251e+00	1.178170e+00	1.183924e+00	1.188978e+00	1.195816e+00	1.203676e+00	1.211279e+00	1.217813e+00	1.226677e+00	1.232994e+00	1.235887e+00	1.243493e+00	1.242153e+00	1.243612e+00	1.239777e+00	1.225190e+00	1.216443e+00	1.199708e+00	1.181334e+00	1.169745e+00	1.150294e+00	1.147060e+00	1.150523e+00	1.151491e+00	1.166569e+00	1.171645e+00	1.183115e+00	1.195053e+00	1.203063e+00	1.214047e+00	1.220984e+00	1.228164e+00	1.234360e+00	1.240551e+00	1.246666e+00	1.252350e+00	1.258331e+00	1.264928e+00	1.270769e+00	1.282267e+00	1.275344e+00	1.315962e+00	1.442048e+00	1.400022e+00	1.400842e+00	1.409407e+00	1.410785e+00	1.415028e+00	1.417501e+00	1.421508e+00	1.424319e+00	1.428394e+00	1.432626e+00	1.436713e+00	1.445109e+00	1.445833e+00	1.458639e+00	1.462562e+00	1.460764e+00	1.469799e+00	1.457280e+00	1.459109e+00	1.448817e+00	1.415599e+00	1.393151e+00	1.349879e+00	1.296552e+00	1.260206e+00	1.175576e+00	1.135687e+00	1.129906e+00	1.118475e+00	1.156265e+00	1.182799e+00	1.213289e+00	1.252226e+00	1.275233e+00	1.293641e+00	1.316583e+00	1.325371e+00	1.330139e+00	1.337218e+00	1.332371e+00	1.336704e+00	1.331990e+00	1.323596e+00	1.319093e+00	1.301843e+00	1.287295e+00	1.268393e+00	1.240411e+00	1.214177e+00	1.184765e+00	1.148111e+00	1.125746e+00	1.090440e+00	1.004797e+00	9.146116e-01	8.695258e-01	8.711005e-01	8.805769e-01	8.799615e-01	8.832449e-01	8.739128e-01	8.720372e-01	8.688935e-01	8.749153e-01	8.883598e-01	8.918791e-01	9.188838e-01	9.400075e-01	9.769174e-01	1.026688e+00	1.044512e+00	1.091097e+00	1.138671e+00	1.170088e+00	1.217216e+00	1.241435e+00	1.271445e+00	1.309024e+00	1.330113e+00	1.355649e+00	1.378763e+00	1.398347e+00	1.418188e+00	1.436884e+00	1.452145e+00	1.468849e+00	1.482545e+00	1.490913e+00	1.500599e+00	1.504433e+00	1.512198e+00	1.518571e+00	1.535219e+00	1.562612e+00	1.590062e+00	1.605351e+00	1.692560e+00	
VECTORS Momentum double
2.732457e+01	2.117366e+02	0.0	1.798465e+02	1.690675e+02	0.0	2.069853e+02	1.595934e+02	0.0	2.355784e+02	1.463917e+02	0.0	2.526464e+02	1.349537e+02	0.0	2.625839e+02	1.221428e+02	0.0	2.694654e+02	1.134751e+02	0.0	2.720183e+02	1.043557e+02	0.0	2.725783e+02	9.910693e+01	0.0	2.732115e+02	9.591017e+01	0.0	2.718577e+02	9.590784e+01	0.0	2.707765e+02	9.964715e+01	0.0	2.721800e+02	1.063658e+02	0.0	2.760571e+02	1.140285e+02	0.0	2.859076e+02	1.227726e+02	0.0	2.946571e+02	1.146073e+02	0.0	3.015632e+02	9.736649e+01	0.0	2.982781e+02	6.957853e+01	0.0	2.859954e+02	3.929813e+01	0.0	2.642733e+02	1.107480e+01	0.0	2.452651e+02	-6.082909e+00	0.0	2.338441e+02	-1.625971e+01	0.0	2.256468e+02	-2.329761e+01	0.0	2.297852e+02	-2.303437e+01	0.0	2.383436e+02	-2.021971e+01	0.0	2.437385e+02	-1.859703e+01	0.0	2.663260e+02	-1.178155e+01	0.0	2.758378e+02	2.128635e+00	0.0	2.673655e+02	1.240720e+01	0.0	2.581227e+02	2.612365e+01	0.0	2.581152e+02	3.026032e+01	0.0	2.570721e+02	3.667420e+01	0.0	2.615665e+02	4.284105e+01	0.0	2.668967e+02	4.319241e+01	0.0	2.712618e+02	4.318922e+01	0.0	2.776071e+02	4.384984e+01	0.0	2.816926e+02	3.798098e+01	0.0	2.837763e+02	3.205863e+01	0.0	2.866418e+02	2.823100e+01	0.0	2.861209e+02	1.985828e+01	0.0	2.875987e+02	1.604795e+01	0.0	2.859708e+02	7.593884e+00	0.0	2.824111e+02	-1.111568e+00	0.0	2.836173e+02	-5.207544e+00	0.0	2.775721e+02	-1.377480e+01	0.0	2.751294e+02	-1.866578e+01	0.0	2.711199e+02	-2.452675e+01	0.0	2.677641e+02	-3.236260e+01	0.0	2.636281e+02	-3.174990e+01	0.0	2.588901e+02	-3.552885e+01	0.0	2.546402e+02	-3.693339e+01	0.0	2.504735e+02	-3.672983e+01	0.0	2.458363e+02	-3.645603e+01	0.0	2.417593e+02	-3.503091e+01	0.0	2.390402e+02	-3.294976e+01	0.0	2.362992e+02	-3.176635e+01	0.0	2.339973e+02	-3.037115e+01	0.0	2.322629e+02	-2.900349e+01	0.0	2.303840e+02	-2.863501e+01	0.0	2.282176e+02	-2.817060e+01	0.0	2.262656e+02	-2.780072e+01	0.0	2.239332e+02	-2.805869e+01	0.0	2.210604e+02	-2.827531e+01	0.0	2.177019e+02	-2.772251e+01	0.0	2.146018e+02	-2.684852e+01	0.0	2.105033e+02	-2.607201e+01	0.0	2.067306e+02	-2.340321e+01	0.0	2.040867e+02	-2.035266e+01	0.0	2.009945e+02	-1.803158e+01	0.0	1.996602e+02	-1.235999e+01	0.0	1.992896e+02	-8.442985e+00	0.0	1.999013e+02	-2.341357e+00	0.0	2.044950e+02	4.735441e+00	0.0	2.093696e+02	7.381302e+00	0.0	2.153959e+02	1.104076e+01	0.0	2.226228e+02	1.171187e+01	0.0	2.287265e+02	9.189660e+00	0.0	2.356301e+02	6.748597e+00	0.0	2.392387e+02	-2.201630e+00	0.0	2.400391e+02	-1.006961e+01	0.0	2.402739e+02	-1.643238e+01	0.0	2.368106e+02	-2.460367e+01	0.0	2.338525e+02	-2.761383e+01	0.0	2.297154e+02	-3.230824e+01	0.0	2.247950e+02	-3.498571e+01	0.0	2.205185e+02	-3.614599e+01	0.0	2.158548e+02	-3.764629e+01	0.0	2.118334e+02	-3.751485e+01	0.0	2.081079e+02	-3.756980e+01	0.0	2.045824e+02	-3.734766e+01	0.0	2.010509e+02	-3.720944e+01	0.0	1.975124e+02	-3.704470e+01	0.0	1.940551e+02	-3.675038e+01	0.0	1.903587e+02	-3.647825e+01	0.0	1.865876e+02	-3.612816e+01	0.0	1.826981e+02	-3.573991e+01	0.0	1.776313e+02	-3.515721e+01	0.0	1.730254e+02	-3.436046e+01	0.0	1.610608e+02	-3.438570e+01	0.0	2.050955e+02	-4.314186e+00	0.0	2.977650e+02	-1.542024e+01	0.0	2.761788e+02	-9.087762e+00	0.0	2.693649e+02	-5.631483e+00	0.0	2.710792e+02	-4.560188e+00	0.0	2.686715e+02	-2.277689e+00	0.0	2.679450e+02	-4.718407e-01	0.0	2.664375e+02	1.442675e+00	0.0	2.649813e+02	3.048607e+00	0.0	2.633412e+02	5.128907e+00	0.0	2.617379e+02	6.801305e+00	0.0	2.596939e+02	8.683239e+00	0.0	2.575532e+02	1.094642e+01	0.0	2.546473e+02	1.310324e+01	0.0	2.515975e+02	1.775658e+01	0.0	2.488255e+02	2.004442e+01	0.0	2.441493e+02	2.745166e+01	0.0	2.428340e+02	3.579745e+01	0.0	2.413698e+02	4.145653e+01	0.0	2.391826e+02	5.355811e+01	0.0	2.412044e+02	6.111303e+01	0.0	2.404712e+02	7.362989e+01	0.0	2.465994e+02	8.834153e+01	0.0	2.599263e+02	9.436960e+01	0.0	2.690721e+02	1.009838e+02	0.0	2.819279e+02	1.038906e+02	0.0	2.975731e+02	9.770675e+01	0.0	3.064402e+02	9.386000e+01	0.0	3.214439e+02	7.694316e+01	0.0	3.272835e+02	5.760982e+01	0.0	3.243803e+02	4.741336e+01	0.0	3.291268e+02	3.134025e+01	0.0	3.249769e+02	2.356482e+01	0.0	3.217630e+02	1.709781e+01	0.0	3.175850e+02	1.145075e+01	0.0	3.113138e+02	1.250826e+01	0.0	3.072658e+02	1.383801e+01	0.0	3.035291e+02	1.483966e+01	0.0	2.989292e+02	2.055887e+01	0.0	2.974534e+02	2.538089e+01	0.0	2.963464e+02	2.884486e+01	0.0	2.949619e+02	3.479375e+01	0.0	2.954125e+02	3.771782e+01	0.0	2.943800e+02	4.346165e+01	0.0	2.955169e+02	4.869709e+01	0.0	2.974676e+02	5.221328e+01	0.0	2.985990e+02	5.792955e+01	0.0	3.025792e+02	6.082939e+01	0.0	3.052695e+02	6.349376e+01	0.0	3.086199e+02	6.601353e+01	0.0	3.136618e+02	6.544979e+01	0.0	3.168385e+02	6.392142e+01	0.0	3.193755e+02	6.274955e+01	0.0	3.230255e+02	5.569912e+01	0.0	3.248540e+02	4.918541e+01	0.0	3.253524e+02	4.396555e+01	0.0	3.246630e+02	3.585611e+01	0.0	3.208102e+02	3.076769e+01	0.0	3.230385e+02	2.337756e+01	0.0	3.239328e+02	1.749661e+01	0.0	3.237479e+02	1.332034e+01	0.0	3.250917e+02	7.679081e+00	0.0	3.233376e+02	4.955505e+00	0.0	3.235832e+02	3.461519e-01	0.0	3.227852e+02	-3.338500e+00	0.0	3.236864e+02	-9.040320e+00	0.0	3.255645e+02	-1.594832e+01	0.0	3.240265e+02	-2.011134e+01	0.0	3.270866e+02	-3.046099e+01	0.0	3.264592e+02	-3.798476e+01	0.0	3.280095e+02	-4.951047e+01	0.0	3.291243e+02	-6.320898e+01	0.0	3.253332e+02	-6.783112e+01	0.0	3.242576e+02	-8.131917e+01	0.0	3.183023e+02	-9.043438e+01	0.0	3.123383e+02	-9.523258e+01	0.0	3.068589e+02	-1.041634e+02	0.0	2.991764e+02	-1.050160e+02	0.0	2.925797e+02	-1.098890e+02	0.0	2.842405e+02	-1.136725e+02	0.0	2.762057e+02	-1.114993e+02	0.0	2.691720e+02	-1.126409e+02	0.0	2.611274e+02	-1.116473e+02	0.0	2.536901e+02	-1.096494e+02	0.0	2.462282e+02	-1.079838e+02	0.0	2.386340e+02	-1.048238e+02	0.0	2.315132e+02	-1.007958e+02	0.0	2.244496e+02	-9.697988e+01	0.0	2.180176e+02	-9.122403e+01	0.0	2.127006e+02	-8.536279e+01	0.0	2.076426e+02	-8.122896e+01	0.0	2.031458e+02	-7.733297e+01	0.0	1.974134e+02	-7.747337e+01	0.0	1.889294e+02	-7.906215e+01	0.0	1.733074e+02	-8.297003e+01	0.0	1.457095e+02	-8.427823e+01	0.0	1.090821e+02	-7.265725e+01	0.0	6.309341e+01	-4.793710e+01	0.0	-2.028255e+01	2.418255e+01	0.0	
SCALARS Energy double 1
LOOKUP_TABLE default
3.333133e+05	2.621310e+05	2.699871e+05	2.658029e+05	2.639763e+05	2.624271e+05	2.642879e+05	2.655467e+05	2.687140e+05	2.715943e+05	2.743192e+05	2.760540e+05	2.754906e+05	2.708608e+05	2.624111e+05	2.420032e+05	2.202682e+05	1.948868e+05	1.704433e+05	1.477725e+05	1.326638e+05	1.238615e+05	1.185628e+05	1.210842e+05	1.262903e+05	1.335458e+05	1.629992e+05	2.288263e+05	2.666779e+05	2.662298e+05	2.608019e+05	2.590695e+05	2.558613e+05	2.493218e+05	2.440726e+05	2.389322e+05	2.301819e+05	2.236928e+05	2.190660e+05	2.110222e+05	2.062482e+05	1.974962e+05	1.897038e+05	1.860839e+05	1.776737e+05	1.726471e+05	1.716004e+05	1.893465e+05	2.247082e+05	2.382118e+05	2.424723e+05	2.463536e+05	2.497380e+05	2.529998e+05	2.555336e+05	2.570198e+05	2.586299e+05	2.599219e+05	2.607834e+05	2.619102e+05	2.630175e+05	2.639622e+05	2.652590e+05	2.667463e+05	2.681953e+05	2.693736e+05	2.710590e+05	2.722618e+05	2.727226e+05	2.742621e+05	2.739500e+05	2.742816e+05	2.736801e+05	2.708131e+05	2.692617e+05	2.660874e+05	2.625217e+05	2.604579e+05	2.565623e+05	2.559409e+05	2.567051e+05	2.567457e+05	2.597734e+05	2.606450e+05	2.628207e+05	2.651293e+05	2.665981e+05	2.687250e+05	2.700158e+05	2.713710e+05	2.725226e+05	2.736772e+05	2.748229e+05	2.758707e+05	2.769833e+05	2.782272e+05	2.792659e+05	2.815403e+05	2.796102e+05	2.899489e+05	3.215307e+05	3.114012e+05	3.111902e+05	3.130953e+05	3.132538e+05	3.141121e+05	3.145547e+05	3.153265e+05	3.158369e+05	3.166186e+05	3.174128e+05	3.181743e+05	3.198146e+05	3.198301e+05	3.224247e+05	3.230682e+05	3.226745e+05	3.245711e+05	3.219162e+05	3.224852e+05	3.204278e+05	3.139123e+05	3.099608e+05	3.014769e+05	2.911180e+05	2.844093e+05	2.674184e+05	2.600279e+05	2.589946e+05	2.562799e+05	2.642534e+05	2.693251e+05	2.753394e+05	2.830799e+05	2.874224e+05	2.909870e+05	2.955357e+05	2.970981e+05	2.980266e+05	2.994611e+05	2.983971e+05	2.993572e+05	2.983533e+05	2.967175e+05	2.959378e+05	2.924709e+05	2.897346e+05	2.860145e+05	2.804678e+05	2.753868e+05	2.695262e+05	2.621618e+05	2.577652e+05	2.506159e+05	2.332256e+05	2.150080e+05	2.056304e+05	2.061107e+05	2.080355e+05	2.078737e+05	2.086442e+05	2.066115e+05	2.062636e+05	2.055609e+05	2.068555e+05	2.097358e+05	2.102957e+05	2.160469e+05	2.202667e+05	2.279466e+05	2.382767e+05	2.416188e+05	2.512483e+05	2.606701e+05	2.667640e+05	2.762910e+05	2.807874e+05	2.867014e+05	2.941031e+05	2.979781e+05	3.029591e+05	3.073561e+05	3.110497e+05	3.148311e+05	3.183577e+05	3.211854e+05	3.243500e+05	3.268878e+05	3.283537e+05	3.301536e+05	3.307390e+05	3.321850e+05	3.332643e+05	3.363642e+05	3.414596e+05	3.463654e+05	3.486963e+05	3.671339e+05	
SCALARS Pressure double 1
LOOKUP_TABLE default
1.273170e+05	9.447787e+04	9.668211e+04	9.331390e+04	9.157943e+04	9.054293e+04	9.110914e+04	9.179481e+04	9.337894e+04	9.474045e+04	9.610488e+04	9.686646e+04	9.624739e+04	9.347646e+04	8.819707e+04	7.782374e+04	6.687149e+04	5.517515e+04	4.465113e+04	3.599114e+04	3.069150e+04	2.750184e+04	2.577720e+04	2.648966e+04	2.799830e+04	3.142440e+04	4.439194e+04	7.639277e+04	9.463178e+04	9.518321e+04	9.272022e+04	9.196373e+04	9.001108e+04	8.651184e+04	8.364984e+04	8.056076e+04	7.605286e+04	7.277300e+04	7.021260e+04	6.640454e+04	6.384632e+04	5.967594e+04	5.618595e+04	5.409008e+04	5.051714e+04	4.814555e+04	4.816420e+04	5.787116e+04	7.562824e+04	8.234987e+04	8.470163e+04	8.686327e+04	8.881756e+04	9.065593e+04	9.204145e+04	9.294470e+04	9.386089e+04	9.458461e+04	9.511794e+04	9.578797e+04	9.642789e+04	9.701731e+04	9.779678e+04	9.869591e+04	9.955492e+04	1.003605e+05	1.013663e+05	1.020814e+05	1.024988e+05	1.032686e+05	1.031738e+05	1.032852e+05	1.027223e+05	1.011606e+05	1.000566e+05	9.814995e+04	9.613729e+04	9.468244e+04	9.267266e+04	9.231233e+04	9.259939e+04	9.285285e+04	9.440293e+04	9.507212e+04	9.637904e+04	9.769476e+04	9.865784e+04	9.986577e+04	1.006810e+05	1.015056e+05	1.022353e+05	1.029603e+05	1.036712e+05	1.043488e+05	1.050523e+05	1.058114e+05	1.065459e+05	1.077625e+05	1.075907e+05	1.095838e+05	1.162824e+05	1.136525e+05	1.141124e+05	1.148075e+05	1.150676e+05	1.154974e+05	1.158055e+05	1.162503e+05	1.165933e+05	1.170488e+05	1.175396e+05	1.180190e+05	1.189276e+05	1.191321e+05	1.204255e+05	1.209729e+05	1.208207e+05	1.216671e+05	1.205214e+05	1.205075e+05	1.194402e+05	1.158707e+05	1.130067e+05	1.083530e+05	1.025215e+05	9.819541e+04	8.949248e+04	8.477234e+04	8.405047e+04	8.329463e+04	8.679450e+04	8.977850e+04	9.302133e+04	9.710206e+04	9.974466e+04	1.017688e+05	1.041855e+05	1.052911e+05	1.058101e+05	1.065251e+05	1.061173e+05	1.064728e+05	1.060456e+05	1.051328e+05	1.045454e+05	1.027751e+05	1.010947e+05	9.907603e+04	9.612727e+04	9.324327e+04	9.017447e+04	8.641035e+04	8.401689e+04	8.044714e+04	7.183572e+04	6.267269e+04	5.836195e+04	5.835973e+04	5.931201e+04	5.928703e+04	5.951335e+04	5.871275e+04	5.849127e+04	5.823950e+04	5.877312e+04	5.997462e+04	6.048330e+04	6.293080e+04	6.512424e+04	6.865034e+04	7.343094e+04	7.550026e+04	8.001430e+04	8.503602e+04	8.848058e+04	9.326186e+04	9.611839e+04	9.931562e+04	1.033231e+05	1.058508e+05	1.086226e+05	1.112432e+05	1.134953e+05	1.157379e+05	1.178873e+05	1.196929e+05	1.215999e+05	1.232203e+05	1.242950e+05	1.254356e+05	1.260144e+05	1.269258e+05	1.277814e+05	1.297360e+05	1.329573e+05	1.363855e+05	1.386963e+05	1.467358e+05	
SCALARS Temperature double 1
LOOKUP_TABLE default
2.923299e+02	2.802059e+02	2.788759e+02	2.748210e+02	2.724141e+02	2.713039e+02	2.711362e+02	2.716902e+02	2.727521e+02	2.735247e+02	2.744009e+02	2.747239e+02	2.738365e+02	2.713550e+02	2.660549e+02	2.573572e+02	2.463128e+02	2.333647e+02	2.195546e+02	2.071454e+02	1.987120e+02	1.921677e+02	1.888811e+02	1.898481e+02	1.919274e+02	2.014655e+02	2.263879e+02	2.647158e+02	2.770108e+02	2.785453e+02	2.773940e+02	2.770815e+02	2.752449e+02	2.724524e+02	2.699593e+02	2.666868e+02	2.626639e+02	2.596180e+02	2.567071e+02	2.531563e+02	2.500112e+02	2.454226e+02	2.416721e+02	2.381941e+02	2.341423e+02	2.306273e+02	2.317960e+02	2.475836e+02	2.663270e+02	2.717006e+02	2.738119e+02	2.757074e+02	2.774649e+02	2.790049e+02	2.800748e+02	2.808924e+02	2.816282e+02	2.821861e+02	2.826650e+02	2.832263e+02	2.837324e+02	2.842535e+02	2.848987e+02	2.856405e+02	2.863182e+02	2.870865e+02	2.878682e+02	2.884137e+02	2.889152e+02	2.893046e+02	2.893508e+02	2.893235e+02	2.886368e+02	2.876328e+02	2.865393e+02	2.850000e+02	2.834977e+02	2.819738e+02	2.806553e+02	2.803521e+02	2.803775e+02	2.809085e+02	2.819066e+02	2.826752e+02	2.837826e+02	2.847833e+02	2.856759e+02	2.865573e+02	2.872553e+02	2.879148e+02	2.885290e+02	2.891249e+02	2.896932e+02	2.902635e+02	2.908313e+02	2.914048e+02	2.920791e+02	2.927651e+02	2.938850e+02	2.900904e+02	2.809082e+02	2.827967e+02	2.837750e+02	2.837687e+02	2.841335e+02	2.843397e+02	2.846010e+02	2.848888e+02	2.851654e+02	2.854628e+02	2.858128e+02	2.861621e+02	2.866900e+02	2.870389e+02	2.876079e+02	2.881405e+02	2.881322e+02	2.883670e+02	2.881054e+02	2.877112e+02	2.871887e+02	2.851437e+02	2.825768e+02	2.796253e+02	2.754582e+02	2.714439e+02	2.651954e+02	2.600314e+02	2.591363e+02	2.594305e+02	2.614960e+02	2.644185e+02	2.670844e+02	2.701321e+02	2.724774e+02	2.740510e+02	2.756699e+02	2.767481e+02	2.771154e+02	2.775108e+02	2.774543e+02	2.774812e+02	2.773461e+02	2.767025e+02	2.760959e+02	2.750171e+02	2.735776e+02	2.721103e+02	2.699674e+02	2.675260e+02	2.651439e+02	2.621877e+02	2.599900e+02	2.570036e+02	2.490535e+02	2.387108e+02	2.338179e+02	2.333863e+02	2.346420e+02	2.347072e+02	2.347273e+02	2.340425e+02	2.336611e+02	2.334971e+02	2.340147e+02	2.351846e+02	2.362435e+02	2.385794e+02	2.413469e+02	2.448022e+02	2.491558e+02	2.518056e+02	2.554668e+02	2.601568e+02	2.634267e+02	2.669112e+02	2.697199e+02	2.721137e+02	2.749667e+02	2.772272e+02	2.791281e+02	2.810698e+02	2.827440e+02	2.842969e+02	2.858090e+02	2.871369e+02	2.883942e+02	2.895374e+02	2.904234e+02	2.911968e+02	2.917948e+02	2.923962e+02	2.931318e+02	2.943883e+02	2.964090e+02	2.988026e+02	3.009714e+02	3.020108e+02	
SCALARS Mach double 1
LOOKUP_TABLE default
4.105379e-01	6.262387e-01	6.464451e-01	7.055711e-01	7.391927e-01	7.543892e-01	7.566686e-01	7.491224e-01	7.345282e-01	7.237988e-01	7.115108e-01	7.069461e-01	7.194414e-01	7.536926e-01	8.239987e-01	9.332217e-01	1.064963e+00	1.214288e+00	1.371767e+00	1.514597e+00	1.613556e+00	1.691893e+00	1.731853e+00	1.720049e+00	1.694800e+00	1.581025e+00	1.293842e+00	8.412504e-01	6.740694e-01	6.513994e-01	6.684558e-01	6.730355e-01	6.995441e-01	7.386652e-01	7.725550e-01	8.157931e-01	8.673472e-01	9.054155e-01	9.411534e-01	9.840350e-01	1.021473e+00	1.075359e+00	1.118901e+00	1.158977e+00	1.205402e+00	1.245530e+00	1.232199e+00	1.050077e+00	8.204707e-01	7.489801e-01	7.197853e-01	6.929319e-01	6.674143e-01	6.445041e-01	6.282501e-01	6.156271e-01	6.041052e-01	5.952615e-01	5.875917e-01	5.785082e-01	5.702232e-01	5.615982e-01	5.507777e-01	5.381295e-01	5.263668e-01	5.127774e-01	4.986480e-01	4.885914e-01	4.791948e-01	4.717938e-01	4.709100e-01	4.714328e-01	4.844298e-01	5.029352e-01	5.224856e-01	5.490639e-01	5.740773e-01	5.986383e-01	6.193066e-01	6.239888e-01	6.235972e-01	6.153761e-01	5.997038e-01	5.874285e-01	5.693966e-01	5.527250e-01	5.375196e-01	5.221679e-01	5.097532e-01	4.977943e-01	4.864452e-01	4.752208e-01	4.643106e-01	4.531408e-01	4.417846e-01	4.300568e-01	4.159086e-01	4.010716e-01	3.757538e-01	4.565550e-01	6.153814e-01	5.854697e-01	5.695224e-01	5.696266e-01	5.635939e-01	5.601621e-01	5.557908e-01	5.509450e-01	5.462568e-01	5.411800e-01	5.351579e-01	5.290952e-01	5.198257e-01	5.136269e-01	5.033872e-01	4.936491e-01	4.938023e-01	4.894594e-01	4.942944e-01	5.015114e-01	5.109479e-01	5.466257e-01	5.890100e-01	6.351141e-01	6.965000e-01	7.524821e-01	8.350929e-01	9.002917e-01	9.113705e-01	9.077352e-01	8.820322e-01	8.450563e-01	8.106079e-01	7.702337e-01	7.383207e-01	7.164335e-01	6.934688e-01	6.778983e-01	6.725398e-01	6.667392e-01	6.675703e-01	6.671743e-01	6.691594e-01	6.785619e-01	6.873447e-01	7.027874e-01	7.230615e-01	7.433692e-01	7.724463e-01	8.048272e-01	8.357554e-01	8.733484e-01	9.008062e-01	9.375398e-01	1.032785e+00	1.153038e+00	1.209111e+00	1.214042e+00	1.199689e+00	1.198943e+00	1.198713e+00	1.206544e+00	1.210902e+00	1.212776e+00	1.206861e+00	1.193480e+00	1.181356e+00	1.154548e+00	1.122659e+00	1.082590e+00	1.031578e+00	1.000170e+00	9.562148e-01	8.987357e-01	8.576915e-01	8.128688e-01	7.757632e-01	7.433234e-01	7.035032e-01	6.709030e-01	6.426477e-01	6.128636e-01	5.863192e-01	5.608760e-01	5.352244e-01	5.118759e-01	4.889546e-01	4.673219e-01	4.499662e-01	4.343410e-01	4.219238e-01	4.091083e-01	3.929393e-01	3.638717e-01	3.121108e-01	2.378652e-01	1.419237e-01	5.352592e-02	
SCALARS Pressure_Coefficient double 1
LOOKUP_TABLE default