# vtk DataFile Version 3.0
vtk output
ASCII
DATASET UNSTRUCTURED_GRID
POINTS 1851 double
1.000000e+02	0.000000e+00	0.0	9.917900e+01	1.278772e+01	0.0	9.672949e+01	2.536546e+01	0.0	9.269168e+01	3.752670e+01	0.0	8.713187e+01	4.907176e+01	0.0	8.014136e+01	5.981105e+01	0.0	7.183494e+01	6.956826e+01	0.0	6.234898e+01	7.818315e+01	0.0	5.183926e+01	8.551428e+01	0.0	4.047833e+01	9.144126e+01	0.0	2.845276e+01	9.586679e+01	0.0	1.595999e+01	9.871818e+01	0.0	3.205158e+00	9.994862e+01	0.0	-9.602303e+00	9.953791e+01	0.0	-2.225209e+01	9.749279e+01	0.0	-3.453651e+01	9.384684e+01	0.0	-4.625383e+01	8.865993e+01	0.0	-5.721167e+01	8.201723e+01	0.0	-6.723009e+01	7.402780e+01	0.0	-7.614460e+01	6.482284e+01	0.0	-8.380881e+01	5.455349e+01	0.0	-9.009689e+01	4.338837e+01	0.0	-9.490557e+01	3.151082e+01	0.0	-9.815592e+01	1.911586e+01	0.0	-9.979454e+01	6.407022e+00	0.0	-9.979454e+01	-6.407022e+00	0.0	-9.815592e+01	-1.911586e+01	0.0	-9.490557e+01	-3.151082e+01	0.0	-9.009689e+01	-4.338837e+01	0.0	-8.380881e+01	-5.455349e+01	0.0	-7.614460e+01	-6.482284e+01	0.0	-6.723009e+01	-7.402780e+01	0.0	-5.721167e+01	-8.201723e+01	0.0	-4.625383e+01	-8.865993e+01	0.0	-3.453651e+01	-9.384684e+01	0.0	-2.225209e+01	-9.749279e+01	0.0	-9.602303e+00	-9.953791e+01	0.0	3.205158e+00	-9.994862e+01	0.0	1.595999e+01	-9.871818e+01	0.0	2.845276e+01	-9.586679e+01	0.0	4.047833e+01	-9.144126e+01	0.0	5.183926e+01	-8.551428e+01	0.0	6.234898e+01	-7.818315e+01	0.0	7.183494e+01	-6.956826e+01	0.0	8.014136e+01	-5.981105e+01	0.0	8.713187e+01	-4.907176e+01	0.0	9.269168e+01	-3.752670e+01	0.0	9.672949e+01	-2.536546e+01	0.0	9.917900e+01	-1.278772e+01	0.0	0.000000e+00	0.000000e+00	0.0	3.018376e-03	3.986151e-03	0.0	6.148978e-03	8.120511e-03	0.0	1.044712e-02	1.133480e-02	0.0	1.495150e-02	1.461525e-02	0.0	2.015361e-02	1.711041e-02	0.0	2.555903e-02	1.966308e-02	0.0	3.140613e-02	2.168629e-02	0.0	3.746775e-02	2.374183e-02	0.0	4.386287e-02	2.545374e-02	0.0	5.049400e-02	2.713582e-02	0.0	5.741197e-02	2.859242e-02	0.0	6.458210e-02	2.995611e-02	0.0	7.201015e-02	3.121534e-02	0.0	7.969960e-02	3.233671e-02	0.0	8.763650e-02	3.342474e-02	0.0	9.582956e-02	3.442672e-02	0.0	1.042696e-01	3.542616e-02	0.0	1.129589e-01	3.642084e-02	0.0	1.218943e-01	3.744849e-02	0.0	1.310770e-01	3.850810e-02	0.0	1.405031e-01	3.963630e-02	0.0	1.501695e-01	4.085916e-02	0.0	1.600834e-01	4.211333e-02	0.0	1.702167e-01	4.359532e-02	0.0	1.805932e-01	4.512061e-02	0.0	1.911918e-01	4.680407e-02	0.0	2.020011e-01	4.869913e-02	0.0	2.130449e-01	5.063531e-02	0.0	2.242948e-01	5.274503e-02	0.0	2.357646e-01	5.492676e-02	0.0	2.474659e-01	5.708312e-02	0.0	2.594240e-01	5.903585e-02	0.0	2.715900e-01	6.102253e-02	0.0	2.840240e-01	6.252075e-02	0.0	2.966897e-01	6.374704e-02	0.0	3.095461e-01	6.487703e-02	0.0	3.226331e-01	6.493455e-02	0.0	3.358861e-01	6.499281e-02	0.0	3.492794e-01	6.453419e-02	0.0	3.628051e-01	6.368412e-02	0.0	3.764608e-01	6.280272e-02	0.0	3.902060e-01	6.153029e-02	0.0	4.040574e-01	6.024803e-02	0.0	4.180047e-01	5.898975e-02	0.0	4.320337e-01	5.775181e-02	0.0	4.461288e-01	5.651653e-02	0.0	4.602931e-01	5.550375e-02	0.0	4.744941e-01	5.448834e-02	0.0	4.887220e-01	5.354466e-02	0.0	5.029616e-01	5.266421e-02	0.0	5.171938e-01	5.178525e-02	0.0	5.314057e-01	5.093543e-02	0.0	5.455808e-01	5.008781e-02	0.0	5.597021e-01	4.920212e-02	0.0	5.737558e-01	4.828462e-02	0.0	5.877297e-01	4.736815e-02	0.0	6.015980e-01	4.628433e-02	0.0	6.153600e-01	4.520882e-02	0.0	6.289905e-01	4.400289e-02	0.0	6.424772e-01	4.267026e-02	0.0	6.558208e-01	4.135179e-02	0.0	6.689710e-01	3.970475e-02	0.0	6.819550e-01	3.806493e-02	0.0	6.947530e-01	3.636570e-02	0.0	7.073507e-01	3.457074e-02	0.0	7.197555e-01	3.280325e-02	0.0	7.319709e-01	3.114774e-02	0.0	7.439797e-01	2.953572e-02	0.0	7.557900e-01	2.810091e-02	0.0	7.674119e-01	2.698373e-02	0.0	7.788056e-01	2.588847e-02	0.0	7.900055e-01	2.538481e-02	0.0	8.009702e-01	2.493235e-02	0.0	8.116989e-01	2.468522e-02	0.0	8.221860e-01	2.454653e-02	0.0	8.324251e-01	2.435256e-02	0.0	8.424144e-01	2.408621e-02	0.0	8.521497e-01	2.373663e-02	0.0	8.616139e-01	2.299064e-02	0.0	8.708289e-01	2.226429e-02	0.0	8.797588e-01	2.120280e-02	0.0	8.884341e-01	2.009334e-02	0.0	8.968512e-01	1.892219e-02	0.0	9.050012e-01	1.761568e-02	0.0	9.129116e-01	1.634761e-02	0.0	9.205680e-01	1.501735e-02	0.0	9.279875e-01	1.370868e-02	0.0	9.351738e-01	1.242539e-02	0.0	9.421287e-01	1.115680e-02	0.0	9.488605e-01	9.928247e-03	0.0	9.553676e-01	8.709161e-03	0.0	9.616599e-01	7.530315e-03	0.0	9.677377e-01	6.369961e-03	0.0	9.736088e-01	5.245328e-03	0.0	9.792752e-01	4.142465e-03	0.0	9.847436e-01	3.071490e-03	0.0	9.900178e-01	2.026488e-03	0.0	9.951018e-01	1.003525e-03	0.0	1.000000e+00	0.000000e+00	0.0	9.950063e-01	2.463768e-04	0.0	9.898213e-01	4.469710e-04	0.0	9.844404e-01	5.935361e-04	0.0	9.788594e-01	6.936402e-04	0.0	9.730738e-01	7.682906e-04	0.0	9.670787e-01	7.834902e-04	0.0	9.608699e-01	7.752703e-04	0.0	9.544428e-01	7.015113e-04	0.0	9.477928e-01	6.107804e-04	0.0	9.409169e-01	4.257103e-04	0.0	9.338094e-01	2.344028e-04	0.0	9.264698e-01	-6.752214e-05	0.0	9.188916e-01	-4.013971e-04	0.0	9.110758e-01	-8.357954e-04	0.0	9.030224e-01	-1.425179e-03	0.0	8.947206e-01	-2.032745e-03	0.0	8.862044e-01	-3.033721e-03	0.0	8.774401e-01	-4.103676e-03	0.0	8.684654e-01	-5.479020e-03	0.0	8.592915e-01	-7.239694e-03	0.0	8.498734e-01	-9.086087e-03	0.0	8.403402e-01	-1.158828e-02	0.0	8.305583e-01	-1.415575e-02	0.0	8.205457e-01	-1.685241e-02	0.0	8.102929e-01	-1.963702e-02	0.0	7.997337e-01	-2.223060e-02	0.0	7.888595e-01	-2.458636e-02	0.0	7.777163e-01	-2.682657e-02	0.0	7.661877e-01	-2.823836e-02	0.0	7.544236e-01	-2.967898e-02	0.0	7.423802e-01	-3.062583e-02	0.0	7.300985e-01	-3.144430e-02	0.0	7.176006e-01	-3.229999e-02	0.0	7.048959e-01	-3.321788e-02	0.0	6.919896e-01	-3.415034e-02	0.0	6.789516e-01	-3.569995e-02	0.0	6.657453e-01	-3.740536e-02	0.0	6.524134e-01	-3.940892e-02	0.0	6.390318e-01	-4.210202e-02	0.0	6.255036e-01	-4.482464e-02	0.0	6.119157e-01	-4.791684e-02	0.0	5.982309e-01	-5.114774e-02	0.0	5.844349e-01	-5.439062e-02	0.0	5.705328e-01	-5.760613e-02	0.0	5.565500e-01	-6.084029e-02	0.0	5.424257e-01	-6.373655e-02	0.0	5.282151e-01	-6.648352e-02	0.0	5.139471e-01	-6.912181e-02	0.0	4.995721e-01	-7.127212e-02	0.0	4.851895e-01	-7.342357e-02	0.0	4.707610e-01	-7.516000e-02	0.0	4.563342e-01	-7.672972e-02	0.0	4.419330e-01	-7.815537e-02	0.0	4.275485e-01	-7.916964e-02	0.0	4.132321e-01	-8.017911e-02	0.0	3.989782e-01	-8.081338e-02	0.0	3.848165e-01	-8.135305e-02	0.0	3.707627e-01	-8.177755e-02	0.0	3.568276e-01	-8.199401e-02	0.0	3.430298e-01	-8.220833e-02	0.0	3.293802e-01	-8.226983e-02	0.0	3.158917e-01	-8.231297e-02	0.0	3.025758e-01	-8.233184e-02	0.0	2.894430e-01	-8.231949e-02	0.0	2.765031e-01	-8.230732e-02	0.0	2.637654e-01	-8.224549e-02	0.0	2.512383e-01	-8.218275e-02	0.0	2.389298e-01	-8.208578e-02	0.0	2.268469e-01	-8.195362e-02	0.0	2.149956e-01	-8.182323e-02	0.0	2.033834e-01	-8.158035e-02	0.0	1.920132e-01	-8.134254e-02	0.0	1.808982e-01	-8.088622e-02	0.0	1.700405e-01	-8.024260e-02	0.0	1.594403e-01	-7.956294e-02	0.0	1.491839e-01	-7.803580e-02	0.0	1.391809e-01	-7.654640e-02	0.0	1.296142e-01	-7.428508e-02	0.0	1.204280e-01	-7.150179e-02	0.0	1.115179e-01	-6.871745e-02	0.0	1.033681e-01	-6.470332e-02	0.0	9.544741e-02	-6.080202e-02	0.0	8.792827e-02	-5.670043e-02	0.0	8.086923e-02	-5.228914e-02	0.0	7.402146e-02	-4.800988e-02	0.0	6.747294e-02	-4.372107e-02	0.0	6.116127e-02	-3.951353e-02	0.0	5.501795e-02	-3.548823e-02	0.0	4.889722e-02	-3.187013e-02	0.0	4.297606e-02	-2.836999e-02	0.0	3.704621e-02	-2.536204e-02	0.0	3.129236e-02	-2.249730e-02	0.0	2.568705e-02	-1.982682e-02	0.0	2.033362e-02	-1.713640e-02	0.0	1.531879e-02	-1.425020e-02	0.0	1.074340e-02	-1.107078e-02	0.0	6.508976e-03	-7.754204e-03	0.0	2.827537e-03	-4.097464e-03	0.0	5.225387e-01	-7.627519e-02	0.0	5.129877e-01	-7.872298e-02	0.0	8.673005e+01	2.692742e+01	0.0	8.194680e+01	3.586004e+01	0.0	7.611048e+01	2.553545e+01	0.0	7.284314e+01	-1.205104e+01	0.0	7.495468e+01	-2.442503e+01	0.0	8.617855e+01	-1.540420e+01	0.0	9.130714e+01	-4.470926e+00	0.0	2.711263e+01	2.323967e+01	0.0	3.789017e+01	2.694603e+01	0.0	2.993582e+01	3.397097e+01	0.0	7.283282e+01	3.395576e+01	0.0	6.850663e+01	-3.550144e+01	0.0	7.542412e+01	-4.391225e+01	0.0	8.091126e+01	-3.633747e+01	0.0	8.629313e+01	-2.781177e+01	0.0	5.563904e+01	2.299871e+01	0.0	4.853821e+01	3.006125e+01	0.0	4.534424e+01	1.980567e+01	0.0	5.498459e+01	-5.349648e+01	0.0	6.182351e+01	-6.008267e+01	0.0	6.524812e+01	-5.464261e+01	0.0	6.895798e+01	5.966152e+01	0.0	7.276316e+01	5.054587e+01	0.0	6.006609e+01	6.487753e+01	0.0	4.813754e+01	-6.427272e+01	0.0	4.554972e+01	-7.375890e+01	0.0	5.446315e+01	-7.214770e+01	0.0	6.603385e+01	-4.672793e+01	0.0	4.887420e+01	7.181082e+01	0.0	3.596131e+01	7.150865e+01	0.0	3.055208e+01	6.236922e+01	0.0	4.029299e+01	6.372204e+01	0.0	5.636787e+01	-6.360608e+01	0.0	2.423646e+01	8.098381e+01	0.0	2.414367e+01	7.182821e+01	0.0	3.110838e+01	7.826344e+01	0.0	3.639647e+01	-6.699631e+01	0.0	2.421157e+01	-7.428483e+01	0.0	3.808957e+01	-7.992389e+01	0.0	4.526862e+00	4.581069e+01	0.0	1.839862e-01	5.476120e+01	0.0	-6.159814e+00	4.825700e+01	0.0	2.051880e+01	8.874940e+01	0.0	1.375173e+01	7.978239e+01	0.0	5.398031e+00	3.159799e+01	0.0	1.335124e+01	4.005897e+01	0.0	2.159970e+00	8.540570e-01	0.0	2.766744e+00	1.233426e+00	0.0	1.992468e+00	1.471120e+00	0.0	7.845845e-01	7.464257e-01	0.0	5.004740e-01	9.545392e-01	0.0	5.708338e-01	6.408479e-01	0.0	1.533761e+00	6.323810e-01	0.0	1.282264e+00	5.827416e-01	0.0	1.417018e+00	4.088827e-01	0.0	9.995054e-01	1.331855e-01	0.0	1.015684e+00	9.253627e-02	0.0	1.040058e+00	1.173892e-01	0.0	1.048073e+00	2.517214e-02	0.0	1.031120e+00	3.980388e-02	0.0	1.027744e+00	2.042467e-02	0.0	1.176872e+00	2.870106e-01	0.0	1.056534e+00	2.746851e-01	0.0	1.121494e+00	2.080535e-01	0.0	1.016023e+00	1.332858e-02	0.0	1.007840e+00	1.217344e-02	0.0	1.010560e+00	6.861833e-03	0.0	9.775129e-01	6.090486e-02	0.0	9.814031e-01	4.180555e-02	0.0	9.949639e-01	4.656028e-02	0.0	9.841623e-01	6.945108e-03	0.0	9.809049e-01	9.898995e-03	0.0	9.547481e-01	2.787612e-02	0.0	9.620752e-01	2.346902e-02	0.0	9.650021e-01	3.053562e-02	0.0	9.598153e-01	1.292463e-02	0.0	9.54
[...]
POINT_DATA 1851

SCALARS Density double 1
LOOKUP_TABLE default
1.291742e+00	1.291797e+00	1.292078e+00	1.292186e+00	1.292118e+00	1.292066e+00	1.292031e+00	1.291981e+00	1.291923e+00	1.291869e+00	1.291828e+00	1.291805e+00	1.291812e+00	1.291859e+00	1.291934e+00	1.292013e+00	1.292082e+00	1.292136e+00	1.292180e+00	1.292211e+00	1.292234e+00	1.292252e+00	1.292264e+00	1.292276e+00	1.292285e+00	1.292294e+00	1.292304e+00	1.292316e+00	1.292330e+00	1.292349e+00	1.292372e+00	1.292405e+00	1.292445e+00	1.292494e+00	1.292554e+00	1.292626e+00	1.292696e+00	1.292751e+00	1.292761e+00	1.292738e+00	1.292693e+00	1.292633e+00	1.292571e+00	1.292507e+00	1.292446e+00	1.292400e+00	1.292396e+00	1.292304e+00	1.292017e+00	1.526026e+00	1.171853e+00	1.121979e+00	1.023688e+00	9.595272e-01	8.964439e-01	8.668019e-01	8.358670e-01	8.223194e-01	8.005150e-01	7.895369e-01	7.752255e-01	7.701374e-01	7.609621e-01	7.531867e-01	7.488072e-01	7.928158e-01	9.766706e-01	1.153699e+00	1.167647e+00	1.168976e+00	1.173532e+00	1.178645e+00	1.185757e+00	1.188173e+00	1.183727e+00	1.182832e+00	1.170544e+00	1.153998e+00	1.135178e+00	1.102906e+00	1.060992e+00	1.026053e+00	9.762957e-01	9.204569e-01	8.923854e-01	8.188508e-01	7.555483e-01	7.314000e-01	6.936124e-01	6.748797e-01	6.601681e-01	6.458553e-01	6.499639e-01	6.587358e-01	6.659913e-01	6.788812e-01	6.906043e-01	6.948299e-01	6.991215e-01	7.298557e-01	9.285502e-01	1.169379e+00	1.179149e+00	1.166457e+00	1.163916e+00	1.159126e+00	1.157675e+00	1.158648e+00	1.156071e+00	1.161486e+00	1.163526e+00	1.172298e+00	1.191009e+00	1.201484e+00	1.216369e+00	1.234476e+00	1.246557e+00	1.257757e+00	1.271758e+00	1.273840e+00	1.280539e+00	1.277316e+00	1.260031e+00	1.250890e+00	1.230421e+00	1.209841e+00	1.193298e+00	1.171701e+00	1.168494e+00	1.172496e+00	1.174961e+00	1.192525e+00	1.200144e+00	1.213644e+00	1.227662e+00	1.237118e+00	1.250077e+00	1.259030e+00	1.267998e+00	1.276033e+00	1.284099e+00	1.292524e+00	1.300672e+00	1.309677e+00	1.318504e+00	1.329080e+00	1.345699e+00	1.361712e+00	1.351181e+00	1.437318e+00	1.420802e+00	1.418905e+00	1.422926e+00	1.422367e+00	1.424494e+00	1.425317e+00	1.427681e+00	1.428623e+00	1.430655e+00	1.432930e+00	1.435146e+00	1.440510e+00	1.439310e+00	1.447421e+00	1.449376e+00	1.446818e+00	1.452675e+00	1.444158e+00	1.443643e+00	1.433750e+00	1.408127e+00	1.389841e+00	1.358414e+00	1.325885e+00	1.301980e+00	1.264449e+00	1.256404e+00	1.262132e+00	1.269640e+00	1.297702e+00	1.317872e+00	1.334148e+00	1.358684e+00	1.370894e+00	1.369667e+00	1.380899e+00	1.372165e+00	1.358688e+00	1.348231e+00	1.324127e+00	1.301678e+00	1.279432e+00	1.246693e+00	1.216823e+00	1.196992e+00	1.165439e+00	1.146737e+00	1.129182e+00	1.111314e+00	1.105563e+00	1.089250e+00	1.088324e+00	1.087942e+00	1.091362e+00	1.105215e+00	1.111340e+00	1.123443e+00	1.133546e+00	1.142039e+00	1.153684e+00	1.159645e+00	1.164123e+00	1.165208e+00	1.165270e+00	1.164074e+00	1.160787e+00	1.156585e+00	1.147081e+00	1.137790e+00	1.122338e+00	1.092442e+00	1.017950e+00	9.203210e-01	9.084076e-01	9.240265e-01	9.501042e-01	1.032489e+00	1.048822e+00	1.127020e+00	1.233825e+00	1.274919e+00	1.338165e+00	1.390776e+00	1.425986e+00	1.463476e+00	1.498630e+00	1.517375e+00	1.536161e+00	1.549883e+00	1.555117e+00	1.564188e+00	1.568998e+00	1.581852e+00	1.602351e+00	1.628944e+00	1.628582e+00	1.681918e+00	1.165850e+00	1.152935e+00	1.292121e+00	1.292129e+00	1.292091e+00	1.292185e+00	1.292348e+00	1.292180e+00	1.291931e+00	1.291770e+00	1.291946e+00	1.291758e+00	1.292121e+00	1.292411e+00	1.292410e+00	1.292370e+00	1.292342e+00	1.292087e+00	1.292019e+00	1.292034e+00	1.292538e+00	1.292525e+00	1.292487e+00	1.292027e+00	1.292055e+00	1.291982e+00	1.292617e+00	1.292649e+00	1.292595e+00	1.292452e+00	1.291912e+00	1.291821e+00	1.291768e+00	1.291856e+00	1.292564e+00	1.291770e+00	1.291734e+00	1.291805e+00	1.292713e+00	1.292796e+00	1.292703e+00	1.291282e+00	1.291452e+00	1.291410e+00	1.291784e+00	1.291728e+00	1.290879e+00	1.291350e+00	1.293799e+00	1.291743e+00	1.286695e+00	1.223146e+00	1.202130e+00	1.156238e+00	1.292148e+00	1.288630e+00	1.297528e+00	1.292564e+00	1.305480e+00	1.305361e+00	1.325421e+00	1.327275e+00	1.330996e+00	1.297002e+00	1.291584e+00	1.301405e+00	1.344264e+00	1.348111e+00	1.347002e+00	1.299245e+00	1.309434e+00	1.316552e+00	1.328365e+00	1.321209e+00	1.284591e+00	1.293504e+00	1.296293e+00	1.290574e+00	1.283643e+00	1.272739e+00	1.276049e+00	1.268360e+00	1.259824e+00	1.265744e+00	1.417112e+00	1.426638e+00	1.421885e+00	8.591795e-01	7.802404e-01	7.065105e-01	8.352007e-01	7.783899e-01	8.813038e-01	1.211121e+00	1.095181e+00	1.048704e+00	1.174514e+00	1.171741e+00	1.172324e+00	1.165413e+00	7.396910e-01	7.034106e-01	7.045458e-01	1.427406e+00	1.429376e+00	1.427187e+00	1.411772e+00	1.413364e+00	1.400583e+00	1.285127e+00	1.305483e+00	1.286795e+00	1.263218e+00	1.241726e+00	1.263021e+00	1.306269e+00	1.264644e+00	1.280287e+00	1.095568e+00	1.126971e+00	1.021406e+00	9.976979e-01	1.083292e+00	1.116931e+00	1.086080e+00	1.179778e+00	1.164199e+00	1.178908e+00	1.163229e+00	1.172674e+00	1.164880e+00	1.166118e+00	1.178887e+00	9.507836e-01	1.178292e+00	1.178929e+00	1.170721e+00	1.177431e+00	1.186893e+00	1.184692e+00	1.168968e+00	1.407647e+00	1.411960e+00	1.413230e+00	1.416566e+00	1.417790e+00	1.420441e+00	1.235323e+00	1.245237e+00	1.185673e+00	1.200666e+00	1.193631e+00	1.204570e+00	1.185450e+00	1.193174e+00	1.200750e+00	1.235298e+00	1.241198e+00	1.246407e+00	1.254493e+00	1.291342e+00	1.257741e+00	1.258894e+00	1.255570e+00	1.276278e+00	1.278490e+00	1.282502e+00	1.258941e+00	1.267698e+00	1.263356e+00	1.262933e+00	1.267706e+00	1.267896e+00	1.220015e+00	1.212990e+00	1.209425e+00	1.626339e+00	1.648904e+00	1.648176e+00	1.308107e+00	1.312651e+00	1.316586e+00	1.469247e+00	1.488084e+00	1.445012e+00	1.338682e+00	1.324541e+00	1.338566e+00	1.325935e+00	1.313082e+00	1.301835e+00	1.429842e+00	1.458984e+00	1.399561e+00	1.518601e+00	1.530731e+00	1.544517e+00	1.472129e+00	1.439013e+00	1.462341e+00	1.373766e+00	1.361347e+00	1.382792e+00	1.279536e+00	1.288686e+00	1.338038e+00	1.348447e+00	1.372018e+00	1.348527e+00	1.344992e+00	1.607346e+00	1.585561e+00	1.601125e+00	1.596416e+00	1.330371e+00	1.317856e+00	1.318025e+00	1.307589e+00	1.291673e+00	1.286893e+00	1.432340e+00	1.403703e+00	1.414555e+00	1.397064e+00	1.392648e+00	1.407951e+00	1.390838e+00	1.327051e+00	1.329177e+00	1.324161e+00	1.434950e+00	1.249805e+00	1.256320e+00	1.256190e+00	1.264222e+00	1.244795e+00	1.245585e+00	1.274537e+00	1.262810e+00	1.253030e+00	1.239504e+00	1.242662e+00	1.232196e+00	1.228658e+00	1.252756e+00	1.260212e+00	1.251566e+00	1.242291e+00	1.234276e+00	1.231134e+00	1.265383e+00	1.262864e+00	1.222530e+00	1.206398e+00	1.193253e+00	1.201102e+00	1.203642e+00	1.187674e+00	1.214929e+00	1.271107e+00	1.266531e+00	6.890694e-01	6.818040e-01	6.745643e-01	6.815992e-01	6.910650e-01	7.420662e-01	6.900522e-01	6.673363e-01	6.850925e-01	6.608816e-01	6.659308e-01	6.608392e-01	1.291924e+00	1.291848e+00	6.620502e-01	6.571537e-01	6.528444e-01	9.654314e-01	9.433936e-01	9.224821e-01	1.436915e+00	1.443484e+00	1.443365e+00	1.290985e+00	1.428540e+00	1.431062e+00	1.420852e+00	1.433478e+00	1.436202e+00	1.439048e+00	1.356270e+00	1.359224e+00	1.351397e+00	1.400924e+00	1.394504e+00	1.056737e+00	1.147063e+00	1.163773e+00	1.189428e+00	1.185358e+00	1.186494e+00	7.904989e-01	8.323814e-01	8.657671e-01	1.175883e+00	1.190085e+00	1.180869e+00	7.315873e-01	7.911066e-01	7.723660e-01	1.186203e+00	1.190962e+00	1.186777e+00	9.017640e-01	9.366119e-01	8.541069e-01	7.455570e-01	7.739848e-01	7.177738e-01	1.173876e+00	6.632018e-01	6.510546e-01	6.638286e-01	1.291847e+00	9.986093e-01	9.976839e-01	1.049102e+00	8.479207e-01	8.186445e-01	9.154249e-01	1.082420e+00	1.072496e+00	1.285701e+00	1.147951e+00	1.138418e+00	1.143264e+00	1.291982e+00	8.049669e-01	7.886181e-01	7.779036e-01	8.955616e-01	8.601483e-01	8.394556e-01	1.292068e+00	8.495091e-01	8.889769e-01	1.160292e+00	1.182618e+00	1.292168e+00	1.291633e+00	1.291344e+00	1.291265e+00	1.291810e+00	1.292131e+00	1.291561e+00	1.292203e+00	1.292366e+00	1.292187e+00	1.292166e+00	1.292110e+00	1.262547e+00	1.311458e+00	1.291097e+00	9.175949e-01	8.974166e-01	8.645471e-01	1.292266e+00	1.292247e+00	1.292258e+00	1.292212e+00	1.292239e+00	1.292299e+00	1.292316e+00	1.292323e+00	1.292335e+00	1.292359e+00	1.292395e+00	1.292346e+00	1.292377e+00	1.292418e+00	1.292359e+00	1.292347e+00	1.292456e+00	1.292425e+00	1.292393e+00	1.292283e+00	1.292357e+00	1.292471e+00	1.292541e+00	1.293639e+00	1.293387e+00	1.293821e+00	1.298506e+00	1.302011e+00	1.296828e+00	1.296317e+00	1.299596e+00	1.292530e+00	1.292453e+00	1.575785e+00	1.561179e+00	1.576370e+00	1.580833e+00	1.567718e+00	1.293050e+00	1.293153e+00	1.472034e+00	1.436741e+00	1.458949e+00	1.292713e+00	1.292602e+00	1.292632e+00	1.361100e+00	1.356414e+00	1.461949e+00	1.480796e+00	1.480036e+00	1.292847e+00	1.292819e+00	1.292792e+00	1.445044e+00	1.292704e+00	1.292760e+00	1.292776e+00	1.293356e+00	1.293486e+00	1.294251e+00	1.430284e+00	1.405741e+00	1.376975e+00	1.207183e+00	1.260164e+00	1.081100e+00	1.167075e+00	1.144272e+00	1.300272e+00	1.301880e+00	1.300778e+00	1.292953e+00	1.293042e+00	1.293061e+00	1.210039e+00	1.233342e+00	1.170194e+00	1.325064e+00	1.269958e+00	1.231833e+00	1.020507e+00	1.318166e+00	1.292143e+00	1.279454e+00	1.097273e+00	1.125648e+00	1.090685e+00	1.049448e+00	1.303106e+00	1.312777e+00	1.307869e+00	1.025097e+00	1.155456e+00	1.155791e+00	1.160565e+00	1.161893e+00	1.147084e+00	1.172014e+00	1.176490e+00	1.172330e+00	1.167169e+00	1.209957e+00	1.197927e+00	1.216238e+00	1.172915e+00	1.170793e+00	1.153624e+00	1.158906e+00	1.163137e+00	1.170467e+00	1.168749e+00	1.152268e+00	1.292746e+00	1.292784e+00	1.126916e+00	1.114428e+00	1.111277e+00	1.127723e+00	1.126548e+00	1.114797e+00	1.305174e+00	1.294927e+00	1.310167e+00	1.190615e+00	1.218640e+00	1.204559e+00	1.424022e+00	1.316276e+00	1.322509e+00	1.329866e+00	1.320504e+00	1.322307e+00	1.307916e+00	1.359420e+00	1.344762e+00	1.124319e+00	1.111266e+00	1.352850e+00	1.353689e+00	1.364053e+00	1.357669e+00	1.121214e+00	1.175162e+00	1.163071e+00	1.192404e+00	1.321114e+00	1.322211e+00	1.329557e+00	1.341800e+00	1.322276e+00	1.324580e+00	1.149300e+00	1.350620e+00	1.352834e+00	1.361658e+00	1.341457e+00	1.167165e+00	1.185687e+00	1.195940e+00	1.336309e+00	1.324955e+00	1.220817e+00	1.292280e+00	1.291928e+00	1.290465e+00	1.291617e+00	8.120219e-01	7.833222e-01	8.173770e-01	1.292061e+00	1.292028e+00	1.292856e+00	1.292842e+00	1.293378e+00	1.424989e+00	1.422813e+00	1.293341e+00	1.294169e+00	1.292539e+00	1.292446e+00	1.292464e+00	1.291988e+00	1.291803e+00	1.291919e+00	1.292141e+00	1.293399e+00	1.292611e+00	1.292680e+00	1.291863e+00	1.291768e+00	1.291977e+00	1.291848e+00	1.291931e+00	1.292043e+00	1.291945e+00	1.292490e+00	1.292441e+00	1.291995e+00	1.292051e+00	1.292164e+00	1.292847e+00	1.293155e+00	1.292857e+00	1.292088e+00	1.292173e+00	1.292182e+00	1.292225e+00	1.292172e+00	1.292225e+00	1.295286e+00	1.294892e+00	1.294031e+00	1.291573e+00	1.291733e+00	1.291510e+00	1.292256e+00	1.292127e+00	1.291885e+00	1.290731e+00	1.291389e+00	1.291601e+00	1.288857e+00	1.290116e+00	1.289808e+00	1.292520e+00	1.292416e+00	1.292372e+00	1.292515e+00	1.292309e+00	1.292319e+00	1.292333e+00	1.292245e+00	1.291785e+00	1.291740e+00	1.292087e+00	1.292045e+00	1.291989e+00	1.291818e+00	1.291774e+00	1.291873e+00	1.291928e+00	1.291983e+00	1.291947e+00	1.291905e+00	1.292325e+00	1.292390e+00	1.292707e+00	1.292646e+00	1.292577e+00	1.292801e+00	1.292664e+00	1.292519e+00	1.292045e+00	1.292252e+00	1.293034e+00	1.292737e+00	1.165338e+00	1.163995e+00	7.939979e-01	8.227563e-01	1.290715e+00	1.293231e+00	1.291895e+00	1.292515e+00	1.292968e+00	1.292883e+00	1.292956e+00	1.292861e+00	1.291827e+00	1.291707e+00	1.291714e+00	1.292104e+00	1.292305e+00	1.292301e+00	1.292278e+00	1.292539e+00	1.292470e+00	1.292155e+00	1.292626e+00	8.799737e-01	8.934696e-01	1.294792e+00	1.295145e+00	1.291866e+00	1.292591e+00	1.292908e+00	1.294330e+00	1.294767e+00	1.290860e+00	1.210389e+00	1.292050e+00	1.291999e+00	1.292230e+00	1.292620e+00	1.292699e+00	1.292592e+00	1.292413e+00	1.291571e+00	1.291648e+00	1.291725e+00	1.292259e+00	1.292070e+00	1.292350e+00	1.292279e+00	1.292385e+00	1.292110e+00	1.292016e+00	1.292935e+00	1.292871e+00	1.292694e+00	1.292835e+00	1.292906e+00	1.292775e+00	1.291819e+00	1.291979e+00	1.291945e+00	1.292760e+00	1.292056e+00	1.292109e+00	1.292423e+00	1.292476e+00	1.292541e+00	1.292293e+00	1.292831e+00	1.292812e+00	1.291720e+00	1.292511e+00	1.292866e+00	1.291690e+00	1.291515e+00	1.292782e+00	1.292874e+00	1.291980e+00	1.291922e+00	1.291991e+00	1.292631e+00	1.291169e+00	1.293069e+00	1.293901e+00	9.988028e-01	1.049843e+00	1.292420e+00	1.292376e+00	1.291947e+00	1.291858e+00	1.292468e+00	1.291909e+00	1.292126e+00	1.292016e+00	1.291572e+00	1.291492e+00	1.291922e+00	1.292694e+00	1.291918e+00	1.292889e+00	1.291656e+00	1.291528e+00	1.292105e+00	1.291671e+00	1.292507e+00	7.747101e-01	8.104112e-01	1.291638e+00	1.270106e+00	1.292541e+00	1.292481e+00	1.293940e+00	1.295382e+00	1.296775e+00	1.294506e+00	1.292987e+00	1.291740e+00	1.291156e+00	1.296926e+00	1.295850e+00	1.296475e+00	1.289972e+00	1.288536e+00	1.290457e+00	1.289086e+00	1.542162e+00	1.528803e+00	1.294166e+00	1.291073e+00	1.298446e+00	1.296378e+00	1.297721e+00	1.290059e+00	1.291941e+00	1.292939e+00	1.290653e+00	1.275845e+00	1.283782e+00	1.293212e+00	1.288610e+00	1.285327e+00	1.287309e+00	1.293152e+00	1.293016e+00	1.294576e+00	1.290925e+00	1.291433e+00	1.290952e+00	1.295660e+00	1.285989e+00	1.283148e+00	1.293661e+00	1.294679e+00	1.292855e+00	1.296555e+00	1.295678e+00	1.409514e+00	1.292509e+00	1.290589e+00	1.290891e+00	1.290948e+00	1.288165e+00	1.293041e+00	1.289808e+00	1.298065e+00	1.300408e+00	1.296998e+00	1.298607e+00	1.268493e+00	1.275992e+00	1.293647e+00	1.300030e+00	1.299377e+00	1.289423e+00	1.289253e+00	1.290160e+00	1.294477e+00	1.291713e+00	1.248016e+00	1.275664e+00	1.258726e+00	1.286285e+00	1.285669e+00	1.287534e+00	1.279982e+00	1.291184e+00	1.293852e+00	1.295845e+00	1.303844e+00	1.300176e+00	1.301724e+00	1.414505e+00	1.285241e+00	1.301620e+00	1.296752e+00	1.289290e+00	1.288673e+00	1.287809e+00	1.278992e+00	1.295191e+00	1.166234e+00	1.295063e+00	1.290079e+00	1.268461e+00	1.254592e+00	1.215941e+00	1.217576e+00	1.226851e+00	1.294872e+00	1.300927e+00	1.227428e+00	1.234080e+00	1.146773e+00	1.303733e+00	1.303693e+00	1.268621e+00	1.298961e+00	1.291167e+00	1.301733e+00	1.311982e+00	1.304261e+00	1.310482e+00	1.301853e+00	1.297744e+00	1.301400e+00	1.307609e+00	1.305643e+00	1.306908e+00	1.287843e+00	1.290992e+00	1.304806e+00	1.308354e+00	1.301900e+00	1.289406e+00	1.312877e+00	1.316413e+00	1.321050e+00	1.292167e+00	1.300336e+00	1.519345e+00	1.242381e+00	1.233456e+00	1.210564e+00	1.276342e+00	1.285983e+00	1.299030e+00	1.307093e+00	1.312850e+00	1.328509e+00	1.347764e+00	1.325857e+00	1.330741e+00	1.281736e+00	1.314118e+00	1.119078e+00	1.135465e+00	1.295636e+00	1.301493e+00	1.340348e+00	1.308545e+00	1.478981e+00	1.288209e+00	1.299754e+00	1.290619e+00	1.256612e+00	1.309307e+00	1.318149e+00	1.113464e+00	1.192514e+00	1.157255e+00	1.303918e+00	1.299782e+00	1.321494e+00	1.315504e+00	8.470233e-01	8.210679e-01	8.570609e-01	1.300389e+00	1.159278e+00	1.286742e+00	1.265100e+00	1.242477e+00	1.229631e+00	1.273523e+00	1.331121e+00	1.316502e+00	1.335148e+00	1.102416e+00	1.321377e+00	1.312372e+00	1.407610e+00	1.413993e+00	1.409181e+00	1.331478e+00	1.306687e+00	1.224363e+00	1.210248e+00	1.219758e+00	1.616986e+00	1.256462e+00	1.228776e+00	1.239783e+00	1.190059e+00	1.167125e+00	1.329627e+00	1.301701e+00	1.306031e+00	1.278960e+00	1.220323e+00	1.237813e+00	1.341636e+00	1.366672e+00	1.227141e+00	1.297438e+00	1.265710e+00	1.141198e+00	1.129290e+00	1.298865e+00	1.293369e+00	1.374000e+00	1.357911e+00	1.362311e+00	1.359307e+00	1.356489e+00	1.376212e+00	1.134530e+00	1.398754e+00	1.371892e+00	1.397333e+00	1.231703e+00	1.235384e+00	1.297088e+00	1.295229e+00	1.259912e+00	1.229287e+00	9.776540e-01	1.237936e+00	1.268055e+00	1.277632e+00	1.193091e+00	1.244496e+00	1.292571e+00	1.304187e+00	1.107514e+00	1.152386e+00	1.182632e+00	1.159017e+00	1.001064e+00	1.273942e+00	1.329522e+00	1.283066e+00	1.241676e+00	1.293193e+00	1.216971e+00	8.190752e-01	1.332850e+00	1.068105e+00	1.398297e+00	1.381788e+00	1.215315e+00	1.189720e+00	1.247019e+00	1.339277e+00	1.348019e+00	1.328658e+00	1.341490e+00	1.278680e+00	1.331144e+00	9.575117e-01	1.143625e+00	1.301900e+00	1.164195e+00	1.144579e+00	1.155874e+00	1.266457e+00	1.261602e+00	1.339082e+00	1.348370e+00	1.302419e+00	1.312375e+00	1.335987e+00	1.342884e+00	1.337247e+00	1.391685e+00	1.383225e+00	1.392584e+00	1.181734e+00	1.183614e+00	1.367730e+00	1.338024e+00	1.279072e+00	1.261515e+00	1.343818e+00	1.252382e+00	1.240440e+00	9.248846e-01	1.019602e+00	1.356389e+00	1.440067e+00	1.439155e+00	1.379401e+00	1.212444e+00	1.219536e+00	1.220424e+00	1.201907e+00	9.544555e-01	1.082677e+00	7.148737e-01	7.508988e-01	1.406619e+00	1.188077e+00	1.174663e+00	1.101004e+00	1.158014e+00	1.475874e+00	1.363899e+00	1.377857e+00	1.352231e+00	1.151465e+00	1.179720e+00	1.270827e+00	1.299736e+00	1.381077e+00	1.334982e+00	1.337344e+00	1.187588e+00	1.179025e+00	1.310444e+00	1.308366e+00	9.431135e-01	7.015212e-01	1.054514e+00	1.291089e+00	1.319497e+00	1.307754e+00	1.338795e+00	1.321225e+00	1.215032e+00	1.245627e+00	1.365654e+00	1.123176e+00	1.425927e+00	1.491101e+00	1.431349e+00	1.429086e+00	1.358381e+00	1.373381e+00	1.374912e+00	1.197946e+00	1.190912e+00	1.234848e+00	1.231309e+00	1.290450e+00	1.184407e+00	1.324230e+00	1.305143e+00	1.239020e+00	1.223230e+00	1.243413e+00	1.245098e+00	1.324389e+00	1.334014e+00	1.316657e+00	1.353796e+00	1.352055e+00	1.058666e+00	1.207764e+00	1.163649e+00	1.244978e+00	1.278421e+00	1.311573e+00	1.286573e+00	1.352125e+00	1.174349e+00	1.170901e+00	1.177689e+00	1.246517e+00	1.316142e+00	1.329090e+00	1.114031e+00	1.056448e+00	1.088300e+00	1.128736e+00	1.166621e+00	1.102104e+00	1.100309e+00	1.001399e+00	8.081843e-01	8.329634e-01	1.179245e+00	1.131895e+00	9.810538e-01	1.100270e+00	9.883091e-01	9.147301e-01	1.489954e+00	1.515013e+00	9.444405e-01	9.489272e-01	1.326373e+00	1.135651e+00	1.158936e+00	1.172176e+00	1.179885e+00	1.165725e+00	1.343490e+00	1.336775e+00	1.347243e+00	1.422909e+00	1.221502e+00	1.247153e+00	1.257897e+00	1.005554e+00	1.047891e+00	1.183071e+00	1.597007e+00	1.610767e+00	1.529149e+00	1.420150e+00	1.400255e+00	1.386374e+00	1.233888e+00	1.232154e+00	1.213013e+00	1.320809e+00	1.330619e+00	1.323833e+00	1.280253e+00	1.207578e+00	1.222341e+00	1.425563e+00	1.397293e+00	1.240888e+00	6.872876e-01	1.388394e+00	1.149545e+00	1.295087e+00	1.202256e+00	1.199408e+00	1.501395e+00	1.636705e+00	1.395538e+00	1.151632e+00	1.174491e+00	1.165707e+00	1.450234e+00	1.316751e+00	1.341396e+00	1.361915e+00	1.235582e+00	1.227409e+00	1.245833e+00	1.182593e+00	1.186377e+00	1.356633e+00	1.335408e+00	1.275877e+00	1.332397e+00	1.335498e+00	1.208177e+00	1.190980e+00	1.382257e+00	1.028463e+00	1.444120e+00	1.148920e+00	1.128341e+00	1.119891e+00	1.139093e+00	1.276821e+00	1.156585e+00	1.140045e+00	1.150293e+00	1.139811e+00	1.091660e+00	1.137227e+00	1.162783e+00	1.191593e+00	1.203053e+00	1.191513e+00	1.157599e+00	1.129839e+00	1.163127e+00	1.357430e+00	1.071960e+00	1.113217e+00	1.309789e+00	1.317459e+00	1.346467e+00	1.333891e+00	1.190015e+00	1.366036e+00	9.446823e-01	1.419830e+00	1.425648e+00	6.674008e-01	1.326484e+00	7.698608e-01	7.426937e-01	6.917550e-01	7.033780e-01	1.322049e+00	1.248329e+00	1.216834e+00	1.204442e+00	1.239405e+00	1.229889e+00	1.238411e+00	1.247822e+00	1.382263e+00	1.375955e+00	1.376388e+00	1.327090e+00	1.184875e+00	1.180854e+00	9.320466e-01	9.626186e-01	1.107320e+00	9.701769e-01	1.435548e+00	1.180799e+00	1.174673e+00	1.190037e+00	1.371964e+00	1.420037e+00	9.069055e-01	1.191952e+00	1.237046e+00	1.300278e+00	6.648880e-01	1.272944e+00	1.261435e+00	1.250786e+00	6.672967e-01	6.683094e-01	1.055160e+00	1.000410e+00	1.044285e+00	1.082892e+00	1.169374e+00	1.538545e+00	1.136706e+00	1.215622e+00	1.551903e+00	1.173560e+00	1.109843e+00	1.447497e+00	1.129662e+00	1.077119e+00	1.132860e+00	1.332838e+00	1.325405e+00	1.121850e+00	1.047869e+00	1.161468e+00	1.140963e+00	1.233144e+00	1.142841e+00	1.169225e+00	1.199974e+00	1.332868e+00	1.344244e+00	1.334398e+00	1.169035e+00	1.175567