# vtk DataFile Version 3.0
vtk output
ASCII
DATASET UNSTRUCTURED_GRID
POINTS 198 double
0.000000e+00	0.000000e+00	0.0	3.018376e-03	3.986151e-03	0.0	6.148978e-03	8.120511e-03	0.0	1.044712e-02	1.133480e-02	0.0	1.495150e-02	1.461525e-02	0.0	2.015361e-02	1.711041e-02	0.0	2.555903e-02	1.966308e-02	0.0	3.140613e-02	2.168629e-02	0.0	3.746775e-02	2.374183e-02	0.0	4.386287e-02	2.545374e-02	0.0	5.049400e-02	2.713582e-02	0.0	5.741197e-02	2.859242e-02	0.0	6.458210e-02	2.995611e-02	0.0	7.201015e-02	3.121534e-02	0.0	7.969960e-02	3.233671e-02	0.0	8.763650e-02	3.342474e-02	0.0	9.582956e-02	3.442672e-02	0.0	1.042696e-01	3.542616e-02	0.0	1.129589e-01	3.642084e-02	0.0	1.218943e-01	3.744849e-02	0.0	1.310770e-01	3.850810e-02	0.0	1.405031e-01	3.963630e-02	0.0	1.501695e-01	4.085916e-02	0.0	1.600834e-01	4.211333e-02	0.0	1.702167e-01	4.359532e-02	0.0	1.805932e-01	4.512061e-02	0.0	1.911918e-01	4.680407e-02	0.0	2.020011e-01	4.869913e-02	0.0	2.130449e-01	5.063531e-02	0.0	2.242948e-01	5.274503e-02	0.0	2.357646e-01	5.492676e-02	0.0	2.474659e-01	5.708312e-02	0.0	2.594240e-01	5.903585e-02	0.0	2.715900e-01	6.102253e-02	0.0	2.840240e-01	6.252075e-02	0.0	2.966897e-01	6.374704e-02	0.0	3.095461e-01	6.487703e-02	0.0	3.226331e-01	6.493455e-02	0.0	3.358861e-01	6.499281e-02	0.0	3.492794e-01	6.453419e-02	0.0	3.628051e-01	6.368412e-02	0.0	3.764608e-01	6.280272e-02	0.0	3.902060e-01	6.153029e-02	0.0	4.040574e-01	6.024803e-02	0.0	4.180047e-01	5.898975e-02	0.0	4.320337e-01	5.775181e-02	0.0	4.461288e-01	5.651653e-02	0.0	4.602931e-01	5.550375e-02	0.0	4.744941e-01	5.448834e-02	0.0	4.887220e-01	5.354466e-02	0.0	5.029616e-01	5.266421e-02	0.0	5.171938e-01	5.178525e-02	0.0	5.314057e-01	5.093543e-02	0.0	5.455808e-01	5.008781e-02	0.0	5.597021e-01	4.920212e-02	0.0	5.737558e-01	4.828462e-02	0.0	5.877297e-01	4.736815e-02	0.0	6.015980e-01	4.628433e-02	0.0	6.153600e-01	4.520882e-02	0.0	6.289905e-01	4.400289e-02	0.0	6.424772e-01	4.267026e-02	0.0	6.558208e-01	4.135179e-02	0.0	6.689710e-01	3.970475e-02	0.0	6.819550e-01	3.806493e-02	0.0	6.947530e-01	3.636570e-02	0.0	7.073507e-01	3.457074e-02	0.0	7.197555e-01	3.280325e-02	0.0	7.319709e-01	3.114774e-02	0.0	7.439797e-01	2.953572e-02	0.0	7.557900e-01	2.810091e-02	0.0	7.674119e-01	2.698373e-02	0.0	7.788056e-01	2.588847e-02	0.0	7.900055e-01	2.538481e-02	0.0	8.009702e-01	2.493235e-02	0.0	8.116989e-01	2.468522e-02	0.0	8.221860e-01	2.454653e-02	0.0	8.324251e-01	2.435256e-02	0.0	8.424144e-01	2.408621e-02	0.0	8.521497e-01	2.373663e-02	0.0	8.616139e-01	2.299064e-02	0.0	8.708289e-01	2.226429e-02	0.0	8.797588e-01	2.120280e-02	0.0	8.884341e-01	2.009334e-02	0.0	8.968512e-01	1.892219e-02	0.0	9.050012e-01	1.761568e-02	0.0	9.129116e-01	1.634761e-02	0.0	9.205680e-01	1.501735e-02	0.0	9.279875e-01	1.370868e-02	0.0	9.351738e-01	1.242539e-02	0.0	9.421287e-01	1.115680e-02	0.0	9.488605e-01	9.928247e-03	0.0	9.553676e-01	8.709161e-03	0.0	9.616599e-01	7.530315e-03	0.0	9.677377e-01	6.369961e-03	0.0	9.736088e-01	5.245328e-03	0.0	9.792752e-01	4.142465e-03	0.0	9.847436e-01	3.071490e-03	0.0	9.900178e-01	2.026488e-03	0.0	9.951018e-01	1.003525e-03	0.0	1.000000e+00	0.000000e+00	0.0	9.950063e-01	2.463768e-04	0.0	9.898213e-01	4.469710e-04	0.0	9.844404e-01	5.935361e-04	0.0	9.788594e-01	6.936402e-04	0.0	9.730738e-01	7.682906e-04	0.0	9.670787e-01	7.834902e-04	0.0	9.608699e-01	7.752703e-04	0.0	9.544428e-01	7.015113e-04	0.0	9.477928e-01	6.107804e-04	0.0	9.409169e-01	4.257103e-04	0.0	9.338094e-01	2.344028e-04	0.0	9.264698e-01	-6.752214e-05	0.0	9.188916e-01	-4.013971e-04	0.0	9.110758e-01	-8.357954e-04	0.0	9.030224e-01	-1.425179e-03	0.0	8.947206e-01	-2.032745e-03	0.0	8.862044e-01	-3.033721e-03	0.0	8.774401e-01	-4.103676e-03	0.0	8.684654e-01	-5.479020e-03	0.0	8.592915e-01	-7.239694e-03	0.0	8.498734e-01	-9.086087e-03	0.0	8.403402e-01	-1.158828e-02	0.0	8.305583e-01	-1.415575e-02	0.0	8.205457e-01	-1.685241e-02	0.0	8.102929e-01	-1.963702e-02	0.0	7.997337e-01	-2.223060e-02	0.0	7.888595e-01	-2.458636e-02	0.0	7.777163e-01	-2.682657e-02	0.0	7.661877e-01	-2.823836e-02	0.0	7.544236e-01	-2.967898e-02	0.0	7.423802e-01	-3.062583e-02	0.0	7.300985e-01	-3.144430e-02	0.0	7.176006e-01	-3.229999e-02	0.0	7.048959e-01	-3.321788e-02	0.0	6.919896e-01	-3.415034e-02	0.0	6.789516e-01	-3.569995e-02	0.0	6.657453e-01	-3.740536e-02	0.0	6.524134e-01	-3.940892e-02	0.0	6.390318e-01	-4.210202e-02	0.0	6.255036e-01	-4.482464e-02	0.0	6.119157e-01	-4.791684e-02	0.0	5.982309e-01	-5.114774e-02	0.0	5.844349e-01	-5.439062e-02	0.0	5.705328e-01	-5.760613e-02	0.0	5.565500e-01	-6.084029e-02	0.0	5.424257e-01	-6.373655e-02	0.0	5.282151e-01	-6.648352e-02	0.0	5.139471e-01	-6.912181e-02	0.0	4.995721e-01	-7.127212e-02	0.0	4.851895e-01	-7.342357e-02	0.0	4.707610e-01	-7.516000e-02	0.0	4.563342e-01	-7.672972e-02	0.0	4.419330e-01	-7.815537e-02	0.0	4.275485e-01	-7.916964e-02	0.0	4.132321e-01	-8.017911e-02	0.0	3.989782e-01	-8.081338e-02	0.0	3.848165e-01	-8.135305e-02	0.0	3.707627e-01	-8.177755e-02	0.0	3.568276e-01	-8.199401e-02	0.0	3.430298e-01	-8.220833e-02	0.0	3.293802e-01	-8.226983e-02	0.0	3.158917e-01	-8.231297e-02	0.0	3.025758e-01	-8.233184e-02	0.0	2.894430e-01	-8.231949e-02	0.0	2.765031e-01	-8.230732e-02	0.0	2.637654e-01	-8.224549e-02	0.0	2.512383e-01	-8.218275e-02	0.0	2.389298e-01	-8.208578e-02	0.0	2.268469e-01	-8.195362e-02	0.0	2.149956e-01	-8.182323e-02	0.0	2.033834e-01	-8.158035e-02	0.0	1.920132e-01	-8.134254e-02	0.0	1.808982e-01	-8.088622e-02	0.0	1.700405e-01	-8.024260e-02	0.0	1.594403e-01	-7.956294e-02	0.0	1.491839e-01	-7.803580e-02	0.0	1.391809e-01	-7.654640e-02	0.0	1.296142e-01	-7.428508e-02	0.0	1.204280e-01	-7.150179e-02	0.0	1.115179e-01	-6.871745e-02	0.0	1.033681e-01	-6.470332e-02	0.0	9.544741e-02	-6.080202e-02	0.0	8.792827e-02	-5.670043e-02	0.0	8.086923e-02	-5.228914e-02	0.0	7.402146e-02	-4.800988e-02	0.0	6.747294e-02	-4.372107e-02	0.0	6.116127e-02	-3.951353e-02	0.0	5.501795e-02	-3.548823e-02	0.0	4.889722e-02	-3.187013e-02	0.0	4.297606e-02	-2.836999e-02	0.0	3.704621e-02	-2.536204e-02	0.0	3.129236e-02	-2.249730e-02	0.0	2.568705e-02	-1.982682e-02	0.0	2.033362e-02	-1.713640e-02	0.0	1.531879e-02	-1.425020e-02	0.0	1.074340e-02	-1.107078e-02	0.0	6.508976e-03	-7.754204e-03	0.0	2.827537e-03	-4.097464e-03	0.0	
CELLS 198	594
2	1	2	2	2	3	2	3	4	2	4	5	2	5	6	2	6	7	2	7	8	2	8	9	2	9	10	2	10	11	2	11	12	2	12	13	2	13	14	2	14	15	2	15	16	2	16	17	2	17	18	2	18	19	2	19	20	2	20	21	2	21	22	2	22	23	2	23	24	2	24	25	2	25	26	2	26	27	2	27	28	2	28	29	2	29	30	2	30	31	2	31	32	2	32	33	2	33	34	2	34	35	2	35	36	2	36	37	2	37	38	2	38	39	2	39	40	2	40	41	2	41	42	2	42	43	2	43	44	2	44	45	2	45	46	2	46	47	2	47	48	2	48	49	2	49	50	2	50	51	2	51	52	2	52	53	2	53	54	2	54	55	2	55	56	2	56	57	2	57	58	2	58	59	2	59	60	2	60	61	2	61	62	2	62	63	2	63	64	2	64	65	2	65	66	2	66	67	2	67	68	2	68	69	2	69	70	2	70	71	2	71	72	2	0	1	2	134	135	2	135	136	2	136	137	2	137	138	2	138	139	2	139	140	2	140	141	2	141	142	2	142	143	2	143	144	2	144	145	2	145	146	2	146	147	2	147	148	2	148	149	2	149	150	2	150	151	2	151	152	2	152	153	2	153	154	2	154	155	2	155	156	2	156	157	2	157	158	2	158	159	2	159	160	2	160	161	2	161	162	2	162	163	2	163	164	2	164	165	2	165	166	2	166	167	2	167	168	2	168	169	2	169	170	2	170	171	2	171	172	2	172	173	2	173	174	2	174	175	2	175	176	2	176	177	2	177	178	2	178	179	2	179	180	2	180	181	2	181	182	2	182	183	2	183	184	2	184	185	2	185	186	2	186	187	2	187	188	2	188	189	2	189	190	2	190	191	2	191	192	2	192	193	2	193	194	2	194	195	2	195	196	2	196	197	2	197	0	2	72	73	2	73	74	2	74	75	2	75	76	2	76	77	2	77	78	2	78	79	2	79	80	2	80	81	2	81	82	2	82	83	2	83	84	2	84	85	2	85	86	2	86	87	2	87	88	2	88	89	2	89	90	2	90	91	2	91	92	2	92	93	2	93	94	2	94	95	2	95	96	2	96	97	2	97	98	2	98	99	2	99	100	2	100	101	2	101	102	2	102	103	2	103	104	2	104	105	2	105	106	2	106	107	2	107	108	2	108	109	2	109	110	2	110	111	2	111	112	2	112	113	2	113	114	2	114	115	2	115	116	2	116	117	2	117	118	2	118	119	2	119	120	2	120	121	2	121	122	2	122	123	2	123	124	2	124	125	2	125	126	2	126	127	2	127	128	2	128	129	2	129	130	2	130	131	2	131	132	2	132	133	2	133	134	
CELL_TYPES 198
3	3	3	3	3	3	3	3	3	3	3	3	3	3	3	3	3	3	3	3	3	3	3	3	3	3	3	3	3	3	3	3	3	3	3	3	3	3	3	3	3	3	3	3	3	3	3	3	3	3	3	3	3	3	3	3	3	3	3	3	3	3	3	3	3	3	3	3	3	3	3	3	3	3	3	3	3	3	3	3	3	3	3	3	3	3	3	3	3	3	3	3	3	3	3	3	3	3	3	3	3	3	3	3	3	3	3	3	3	3	3	3	3	3	3	3	3	3	3	3	3	3	3	3	3	3	3	3	3	3	3	3	3	3	3	3	3	3	3	3	3	3	3	3	3	3	3	3	3	3	3	3	3	3	3	3	3	3	3	3	3	3	3	3	3	3	3	3	3	3	3	3	3	3	3	3	3	3	3	3	3	3	3	3	3	3	3	3	3	3	3	3	3	3	3	3	3	3	
POINT_DATA 198

SCALARS Density double 1
LOOKUP_TABLE default
1.526026e+00	1.171853e+00	1.121979e+00	1.023688e+00	9.595272e-01	8.964439e-01	8.668019e-01	8.358670e-01	8.223194e-01	8.005150e-01	7.895369e-01	7.752255e-01	7.701374e-01	7.609621e-01	7.531867e-01	7.488072e-01	7.928158e-01	9.766706e-01	1.153699e+00	1.167647e+00	1.168976e+00	1.173532e+00	1.178645e+00	1.185757e+00	1.188173e+00	1.183727e+00	1.182832e+00	1.170544e+00	1.153998e+00	1.135178e+00	1.102906e+00	1.060992e+00	1.026053e+00	9.762957e-01	9.204569e-01	8.923854e-01	8.188508e-01	7.555483e-01	7.314000e-01	6.936124e-01	6.748797e-01	6.601681e-01	6.458553e-01	6.499639e-01	6.587358e-01	6.659913e-01	6.788812e-01	6.906043e-01	6.948299e-01	6.991215e-01	7.298557e-01	9.285502e-01	1.169379e+00	1.179149e+00	1.166457e+00	1.163916e+00	1.159126e+00	1.157675e+00	1.158648e+00	1.156071e+00	1.161486e+00	1.163526e+00	1.172298e+00	1.191009e+00	1.201484e+00	1.216369e+00	1.234476e+00	1.246557e+00	1.257757e+00	1.271758e+00	1.273840e+00	1.280539e+00	1.277316e+00	1.260031e+00	1.250890e+00	1.230421e+00	1.209841e+00	1.193298e+00	1.171701e+00	1.168494e+00	1.172496e+00	1.174961e+00	1.192525e+00	1.200144e+00	1.213644e+00	1.227662e+00	1.237118e+00	1.250077e+00	1.259030e+00	1.267998e+00	1.276033e+00	1.284099e+00	1.292524e+00	1.300672e+00	1.309677e+00	1.318504e+00	1.329080e+00	1.345699e+00	1.361712e+00	1.351181e+00	1.437318e+00	1.420802e+00	1.418905e+00	1.422926e+00	1.422367e+00	1.424494e+00	1.425317e+00	1.427681e+00	1.428623e+00	1.430655e+00	1.432930e+00	1.435146e+00	1.440510e+00	1.439310e+00	1.447421e+00	1.449376e+00	1.446818e+00	1.452675e+00	1.444158e+00	1.443643e+00	1.433750e+00	1.408127e+00	1.389841e+00	1.358414e+00	1.325885e+00	1.301980e+00	1.264449e+00	1.256404e+00	1.262132e+00	1.269640e+00	1.297702e+00	1.317872e+00	1.334148e+00	1.358684e+00	1.370894e+00	1.369667e+00	1.380899e+00	1.372165e+00	1.358688e+00	1.348231e+00	1.324127e+00	1.301678e+00	1.279432e+00	1.246693e+00	1.216823e+00	1.196992e+00	1.165439e+00	1.146737e+00	1.129182e+00	1.111314e+00	1.105563e+00	1.089250e+00	1.088324e+00	1.087942e+00	1.091362e+00	1.105215e+00	1.111340e+00	1.123443e+00	1.133546e+00	1.142039e+00	1.153684e+00	1.159645e+00	1.164123e+00	1.165208e+00	1.165270e+00	1.164074e+00	1.160787e+00	1.156585e+00	1.147081e+00	1.137790e+00	1.122338e+00	1.092442e+00	1.017950e+00	9.203210e-01	9.084076e-01	9.240265e-01	9.501042e-01	1.032489e+00	1.048822e+00	1.127020e+00	1.233825e+00	1.274919e+00	1.338165e+00	1.390776e+00	1.425986e+00	1.463476e+00	1.498630e+00	1.517375e+00	1.536161e+00	1.549883e+00	1.555117e+00	1.564188e+00	1.568998e+00	1.581852e+00	1.602351e+00	1.628944e+00	1.628582e+00	1.681918e+00	
VECTORS Momentum double
6.409115e+00	2.348209e+02	0.0	1.580146e+02	2.112266e+02	0.0	2.024661e+02	2.014040e+02	0.0	2.395054e+02	1.760690e+02	0.0	2.629399e+02	1.564228e+02	0.0	2.736504e+02	1.303027e+02	0.0	2.818621e+02	1.145568e+02	0.0	2.852912e+02	9.734201e+01	0.0	2.893338e+02	8.720846e+01	0.0	2.898396e+02	7.545773e+01	0.0	2.917153e+02	6.747982e+01	0.0	2.917514e+02	5.838086e+01	0.0	2.926882e+02	5.260925e+01	0.0	2.925815e+02	4.612358e+01	0.0	2.927417e+02	4.123016e+01	0.0	2.905421e+02	3.732210e+01	0.0	2.981778e+02	3.494777e+01	0.0	3.043769e+02	3.554081e+01	0.0	3.048072e+02	3.657277e+01	0.0	3.011257e+02	3.497296e+01	0.0	3.001778e+02	3.531206e+01	0.0	2.995369e+02	3.693484e+01	0.0	2.987013e+02	3.780675e+01	0.0	2.975299e+02	4.055674e+01	0.0	2.979449e+02	4.376262e+01	0.0	2.979413e+02	4.555404e+01	0.0	2.991324e+02	4.991532e+01	0.0	3.014057e+02	5.285668e+01	0.0	3.030838e+02	5.500648e+01	0.0	3.059230e+02	5.789085e+01	0.0	3.097097e+02	5.829638e+01	0.0	3.117383e+02	5.430741e+01	0.0	3.144207e+02	5.149196e+01	0.0	3.170852e+02	4.497902e+01	0.0	3.136509e+02	3.332587e+01	0.0	3.148887e+02	2.941163e+01	0.0	3.071443e+02	1.486900e+01	0.0	2.965449e+02	1.011984e+00	0.0	2.944676e+02	-4.555942e+00	0.0	2.861283e+02	-1.355283e+01	0.0	2.823745e+02	-1.793284e+01	0.0	2.794093e+02	-2.189061e+01	0.0	2.752985e+02	-2.566160e+01	0.0	2.766370e+02	-2.564108e+01	0.0	2.794235e+02	-2.504141e+01	0.0	2.813026e+02	-2.468704e+01	0.0	2.842994e+02	-2.272652e+01	0.0	2.864669e+02	-2.040089e+01	0.0	2.884392e+02	-1.927631e+01	0.0	2.886168e+02	-1.855150e+01	0.0	2.919193e+02	-1.873381e+01	0.0	2.923149e+02	-1.750545e+01	0.0	2.926415e+02	-1.605307e+01	0.0	2.934874e+02	-1.742990e+01	0.0	2.936940e+02	-1.872334e+01	0.0	2.952959e+02	-1.931756e+01	0.0	2.959729e+02	-2.132380e+01	0.0	2.964100e+02	-2.323883e+01	0.0	2.972649e+02	-2.478493e+01	0.0	2.961730e+02	-2.791328e+01	0.0	2.962918e+02	-2.938877e+01	0.0	2.952200e+02	-3.303185e+01	0.0	2.918496e+02	-3.682721e+01	0.0	2.901720e+02	-3.749493e+01	0.0	2.873089e+02	-3.946591e+01	0.0	2.834248e+02	-4.036016e+01	0.0	2.802632e+02	-3.886267e+01	0.0	2.768382e+02	-3.727412e+01	0.0	2.729501e+02	-3.502911e+01	0.0	2.717965e+02	-2.961629e+01	0.0	2.695878e+02	-2.600457e+01	0.0	2.693260e+02	-1.909502e+01	0.0	2.727995e+02	-1.175886e+01	0.0	2.755856e+02	-9.043378e+00	0.0	2.803815e+02	-5.161504e+00	0.0	2.853790e+02	-4.584164e+00	0.0	2.896315e+02	-6.648204e+00	0.0	2.942828e+02	-9.235592e+00	0.0	2.960350e+02	-1.713214e+01	0.0	2.960659e+02	-2.347869e+01	0.0	2.962137e+02	-2.915349e+01	0.0	2.927803e+02	-3.627655e+01	0.0	2.912232e+02	-3.881177e+01	0.0	2.881405e+02	-4.312120e+01	0.0	2.848057e+02	-4.567811e+01	0.0	2.820793e+02	-4.700819e+01	0.0	2.784897e+02	-4.879579e+01	0.0	2.756432e+02	-4.891898e+01	0.0	2.728497e+02	-4.922896e+01	0.0	2.703034e+02	-4.929116e+01	0.0	2.676199e+02	-4.944627e+01	0.0	2.648563e+02	-4.961031e+01	0.0	2.620944e+02	-4.955603e+01	0.0	2.590980e+02	-4.952677e+01	0.0	2.559251e+02	-4.936565e+01	0.0	2.519380e+02	-4.920139e+01	0.0	2.474748e+02	-4.868890e+01	0.0	2.430569e+02	-4.823748e+01	0.0	2.321376e+02	-4.778790e+01	0.0	2.162107e+02	-1.276868e+01	0.0	2.738710e+02	-1.277060e+01	0.0	2.692140e+02	-9.048160e+00	0.0	2.666402e+02	-5.954211e+00	0.0	2.683561e+02	-4.280566e+00	0.0	2.669596e+02	-1.981099e+00	0.0	2.668319e+02	-1.769831e-01	0.0	2.661582e+02	1.719012e+00	0.0	2.655191e+02	3.309542e+00	0.0	2.646793e+02	5.412672e+00	0.0	2.639729e+02	7.107935e+00	0.0	2.629549e+02	8.974144e+00	0.0	2.618391e+02	1.106012e+01	0.0	2.604566e+02	1.283351e+01	0.0	2.586611e+02	1.669927e+01	0.0	2.575166e+02	1.877231e+01	0.0	2.547608e+02	2.441541e+01	0.0	2.542754e+02	3.057408e+01	0.0	2.541813e+02	3.497421e+01	0.0	2.535582e+02	4.380172e+01	0.0	2.555048e+02	4.941591e+01	0.0	2.563503e+02	5.893807e+01	0.0	2.614620e+02	6.874888e+01	0.0	2.710153e+02	7.196206e+01	0.0	2.785677e+02	7.547272e+01	0.0	2.886021e+02	7.465723e+01	0.0	2.982246e+02	6.881608e+01	0.0	3.047973e+02	6.365695e+01	0.0	3.120543e+02	4.994997e+01	0.0	3.125018e+02	3.820826e+01	0.0	3.105477e+02	3.121679e+01	0.0	3.082598e+02	2.221305e+01	0.0	3.014382e+02	2.042125e+01	0.0	2.967868e+02	2.071319e+01	0.0	2.919580e+02	2.088276e+01	0.0	2.859025e+02	2.734949e+01	0.0	2.832207e+02	3.532013e+01	0.0	2.827574e+02	3.947762e+01	0.0	2.802644e+02	4.941534e+01	0.0	2.833432e+02	5.709162e+01	0.0	2.874587e+02	6.148213e+01	0.0	2.907365e+02	6.736507e+01	0.0	2.974137e+02	6.999199e+01	0.0	3.028335e+02	7.056897e+01	0.0	3.075719e+02	7.126121e+01	0.0	3.137795e+02	6.849935e+01	0.0	3.187043e+02	6.356701e+01	0.0	3.207996e+02	6.083210e+01	0.0	3.250474e+02	5.424661e+01	0.0	3.269609e+02	4.891998e+01	0.0	3.280716e+02	4.428680e+01	0.0	3.303452e+02	3.774438e+01	0.0	3.296620e+02	3.429750e+01	0.0	3.318735e+02	2.812833e+01	0.0	3.316706e+02	2.345028e+01	0.0	3.316099e+02	1.887233e+01	0.0	3.322420e+02	1.360103e+01	0.0	3.309685e+02	1.123295e+01	0.0	3.309124e+02	7.447580e+00	0.0	3.300241e+02	5.072322e+00	0.0	3.291994e+02	3.287795e+00	0.0	3.287662e+02	1.224676e+00	0.0	3.275696e+02	7.817100e-01	0.0	3.271777e+02	6.334773e-02	0.0	3.267945e+02	-2.978767e-01	0.0	3.267168e+02	-9.427426e-01	0.0	3.267754e+02	-1.604297e+00	0.0	3.269315e+02	-2.130202e+00	0.0	3.272610e+02	-3.104017e+00	0.0	3.276630e+02	-3.610660e+00	0.0	3.289606e+02	-5.304926e+00	0.0	3.295841e+02	-6.894047e+00	0.0	3.305999e+02	-1.093116e+01	0.0	3.283719e+02	-1.666026e+01	0.0	3.218918e+02	-1.955865e+01	0.0	3.243238e+02	-3.419111e+01	0.0	3.235537e+02	-4.765117e+01	0.0	3.208276e+02	-6.140502e+01	0.0	3.234623e+02	-8.783669e+01	0.0	3.155808e+02	-9.691827e+01	0.0	3.103487e+02	-1.248172e+02	0.0	2.938268e+02	-1.458102e+02	0.0	2.771379e+02	-1.436496e+02	0.0	2.612786e+02	-1.532604e+02	0.0	2.422520e+02	-1.516024e+02	0.0	2.268722e+02	-1.449510e+02	0.0	2.118121e+02	-1.399169e+02	0.0	1.968166e+02	-1.302847e+02	0.0	1.867575e+02	-1.163253e+02	0.0	1.793908e+02	-1.060339e+02	0.0	1.725909e+02	-9.474689e+01	0.0	1.686935e+02	-8.461360e+01	0.0	1.636800e+02	-7.976930e+01	0.0	1.559608e+02	-7.605359e+01	0.0	1.407560e+02	-7.558896e+01	0.0	1.139479e+02	-7.178899e+01	0.0	7.483462e+01	-5.457154e+01	0.0	2.711154e+01	-1.988475e+01	0.0	-4.728511e+01	5.308955e+01	0.0	
SCALARS Energy double 1
LOOKUP_TABLE default
3.361006e+05	2.626117e+05	2.536972e+05	2.343287e+05	2.220199e+05	2.090427e+05	2.032315e+05	1.967965e+05	1.941931e+05	1.896078e+05	1.874408e+05	1.844295e+05	1.834166e+05	1.814927e+05	1.799132e+05	1.787571e+05	1.881712e+05	2.255373e+05	2.618618e+05	2.644603e+05	2.646689e+05	2.655810e+05	2.665891e+05	2.680072e+05	2.685714e+05	2.676672e+05	2.676176e+05	2.652729e+05	2.620028e+05	2.583748e+05	2.520415e+05	2.435693e+05	2.366440e+05	2.267281e+05	2.150515e+05	2.095349e+05	1.940732e+05	1.804761e+05	1.755523e+05	1.673169e+05	1.633011e+05	1.601620e+05	1.569701e+05	1.579163e+05	1.599221e+05	1.615319e+05	1.643395e+05	1.668264e+05	1.678630e+05	1.687035e+05	1.750254e+05	2.145592e+05	2.640857e+05	2.661832e+05	2.635654e+05	2.631560e+05	2.622211e+05	2.619626e+05	2.622360e+05	2.616420e+05	2.627843e+05	2.631577e+05	2.647701e+05	2.685511e+05	2.705546e+05	2.734082e+05	2.769737e+05	2.792713e+05	2.813594e+05	2.841909e+05	2.844721e+05	2.858312e+05	2.853382e+05	2.818709e+05	2.802497e+05	2.762879e+05	2.722773e+05	2.691573e+05	2.648165e+05	2.641842e+05	2.650623e+05	2.653849e+05	2.689519e+05	2.703680e+05	2.729851e+05	2.757477e+05	2.775129e+05	2.800487e+05	2.817562e+05	2.834843e+05	2.850133e+05	2.865483e+05	2.881614e+05	2.897071e+05	2.914275e+05	2.930710e+05	2.950627e+05	2.983476e+05	3.011946e+05	2.979775e+05	3.191686e+05	3.154114e+05	3.148663e+05	3.158086e+05	3.156136e+05	3.160569e+05	3.161956e+05	3.166633e+05	3.168203e+05	3.172157e+05	3.176475e+05	3.180634e+05	3.191337e+05	3.187980e+05	3.204684e+05	3.207685e+05	3.202342e+05	3.215019e+05	3.197305e+05	3.197711e+05	3.178178e+05	3.127823e+05	3.094836e+05	3.033462e+05	2.971070e+05	2.926262e+05	2.851629e+05	2.838203e+05	2.849255e+05	2.862956e+05	2.919354e+05	2.956894e+05	2.988018e+05	3.036532e+05	3.058888e+05	3.055233e+05	3.078950e+05	3.060005e+05	3.034298e+05	3.015343e+05	2.967600e+05	2.925281e+05	2.882542e+05	2.817807e+05	2.759909e+05	2.721850e+05	2.658062e+05	2.622110e+05	2.587027e+05	2.550880e+05	2.540382e+05	2.506228e+05	2.505758e+05	2.504488e+05	2.511143e+05	2.539696e+05	2.551030e+05	2.575619e+05	2.595511e+05	2.612208e+05	2.635729e+05	2.647000e+05	2.655886e+05	2.657809e+05	2.657875e+05	2.655467e+05	2.648836e+05	2.640475e+05	2.621293e+05	2.603325e+05	2.572233e+05	2.512157e+05	2.359246e+05	2.157243e+05	2.137233e+05	2.169209e+05	2.220837e+05	2.394502e+05	2.422926e+05	2.585897e+05	2.800257e+05	2.873980e+05	2.999907e+05	3.099934e+05	3.165014e+05	3.236606e+05	3.303043e+05	3.336164e+05	3.371710e+05	3.396815e+05	3.405155e+05	3.422387e+05	3.429950e+05	3.453465e+05	3.491038e+05	3.540062e+05	3.532744e+05	3.651711e+05	
SCALARS Pressure double 1
LOOKUP_TABLE default
1.272081e+05	9.316856e+04	8.694099e+04	7.646779e+04	6.929719e+04	6.312202e+04	5.993373e+04	5.697673e+04	5.546704e+04	5.343235e+04	5.226645e+04	5.093272e+04	5.040082e+04	4.953908e+04	4.875787e+04	4.858435e+04	5.253147e+04	7.098460e+04	8.840684e+04	9.004309e+04	9.023788e+04	9.070893e+04	9.125326e+04	9.199421e+04	9.216373e+04	9.171804e+04	9.149592e+04	9.010990e+04	8.835648e+04	8.627063e+04	8.280624e+04	7.855294e+04	7.487075e+04	6.967996e+04	6.440362e+04	6.139764e+04	5.453382e+04	4.891201e+04	4.650425e+04	4.326714e+04	4.159563e+04	4.026822e+04	3.911468e+04	3.941583e+04	4.007322e+04	4.066631e+04	4.177208e+04	4.284439e+04	4.309073e+04	4.355314e+04	4.656228e+04	6.735308e+04	9.094329e+04	9.181207e+04	9.057664e+04	9.021442e+04	8.969514e+04	8.951323e+04	8.953499e+04	8.934674e+04	8.984835e+04	9.009437e+04	9.114517e+04	9.304511e+04	9.422182e+04	9.588733e+04	9.781917e+04	9.918944e+04	1.005019e+05	1.019209e+05	1.022719e+05	1.029465e+05	1.024611e+05	1.006805e+05	9.952638e+04	9.727382e+04	9.503628e+04	9.313382e+04	9.091763e+04	9.057626e+04	9.091315e+04	9.133879e+04	9.310439e+04	9.400151e+04	9.548316e+04	9.697644e+04	9.808197e+04	9.948069e+04	1.004914e+05	1.014862e+05	1.023966e+05	1.033102e+05	1.042552e+05	1.051830e+05	1.061967e+05	1.072332e+05	1.084524e+05	1.102131e+05	1.122277e+05	1.122474e+05	1.172079e+05	1.159509e+05	1.159201e+05	1.161987e+05	1.162239e+05	1.164263e+05	1.165375e+05	1.167876e+05	1.169167e+05	1.171380e+05	1.173969e+05	1.176539e+05	1.182120e+05	1.181836e+05	1.189755e+05	1.192691e+05	1.190268e+05	1.195373e+05	1.187228e+05	1.185260e+05	1.174756e+05	1.147319e+05	1.124788e+05	1.090748e+05	1.054382e+05	1.026611e+05	9.872986e+04	9.762992e+04	9.826386e+04	9.917306e+04	1.020531e+05	1.044228e+05	1.062521e+05	1.088497e+05	1.103213e+05	1.103142e+05	1.113526e+05	1.105955e+05	1.090743e+05	1.077951e+05	1.052512e+05	1.026676e+05	1.001875e+05	9.672141e+04	9.344243e+04	9.122758e+04	8.802675e+04	8.594397e+04	8.412253e+04	8.231220e+04	8.161594e+04	8.007869e+04	7.984464e+04	7.985576e+04	8.022855e+04	8.157912e+04	8.230532e+04	8.352071e+04	8.459904e+04	8.550768e+04	8.669113e+04	8.737393e+04	8.784475e+04	8.798175e+04	8.799396e+04	8.787194e+04	8.753682e+04	8.709735e+04	8.613012e+04	8.510610e+04	8.352382e+04	8.045486e+04	7.312996e+04	6.368958e+04	6.207363e+04	6.361802e+04	6.637257e+04	7.401848e+04	7.613478e+04	8.357897e+04	9.456941e+04	9.967342e+04	1.062827e+05	1.122529e+05	1.164347e+05	1.206577e+05	1.246868e+05	1.270658e+05	1.292148e+05	1.308703e+05	1.316256e+05	1.326563e+05	1.333602e+05	1.349113e+05	1.373776e+05	1.405492e+05	1.411709e+05	1.454674e+05	
SCALARS Temperature double 1
LOOKUP_TABLE default
2.903912e+02	2.769661e+02	2.699419e+02	2.602205e+02	2.515873e+02	2.452947e+02	2.408695e+02	2.374602e+02	2.349767e+02	2.325226e+02	2.306115e+02	2.288754e+02	2.279816e+02	2.267855e+02	2.255135e+02	2.260251e+02	2.308222e+02	2.531899e+02	2.669461e+02	2.686390e+02	2.689141e+02	2.692684e+02	2.697091e+02	2.702684e+02	2.702157e+02	2.699190e+02	2.694691e+02	2.681730e+02	2.667250e+02	2.647460e+02	2.615500e+02	2.579174e+02	2.541983e+02	2.486319e+02	2.437458e+02	2.396788e+02	2.320019e+02	2.255192e+02	2.214971e+02	2.173060e+02	2.147097e+02	2.124898e+02	2.109769e+02	2.112573e+02	2.119207e+02	2.127142e+02	2.143496e+02	2.161200e+02	2.160408e+02	2.170187e+02	2.222427e+02	2.526867e+02	2.709230e+02	2.712449e+02	2.705065e+02	2.700131e+02	2.695682e+02	2.693586e+02	2.691980e+02	2.692307e+02	2.694800e+02	2.697441e+02	2.708482e+02	2.721502e+02	2.731894e+02	2.746162e+02	2.760397e+02	2.771939e+02	2.783605e+02	2.791832e+02	2.796866e+02	2.800588e+02	2.794416e+02	2.783522e+02	2.771721e+02	2.754055e+02	2.736475e+02	2.718872e+02	2.703096e+02	2.700338e+02	2.701131e+02	2.708085e+02	2.719775e+02	2.728549e+02	2.740726e+02	2.751805e+02	2.761904e+02	2.772250e+02	2.780502e+02	2.788166e+02	2.795464e+02	2.802691e+02	2.809890e+02	2.817140e+02	2.824733e+02	2.833206e+02	2.842617e+02	2.853092e+02	2.871079e+02	2.893965e+02	2.840760e+02	2.842961e+02	2.846006e+02	2.844784e+02	2.846520e+02	2.847219e+02	2.848293e+02	2.849678e+02	2.850946e+02	2.852287e+02	2.854052e+02	2.855884e+02	2.858748e+02	2.860441e+02	2.863473e+02	2.866667e+02	2.865900e+02	2.866588e+02	2.863847e+02	2.860118e+02	2.854333e+02	2.838394e+02	2.819265e+02	2.797194e+02	2.770271e+02	2.746831e+02	2.720054e+02	2.706974e+02	2.712186e+02	2.721094e+02	2.739566e+02	2.760277e+02	2.774366e+02	2.790868e+02	2.803404e+02	2.805737e+02	2.809111e+02	2.807769e+02	2.796619e+02	2.785255e+02	2.769032e+02	2.747643e+02	2.727888e+02	2.702672e+02	2.675143e+02	2.655004e+02	2.631209e+02	2.610849e+02	2.595246e+02	2.580226e+02	2.571710e+02	2.561060e+02	2.555747e+02	2.557000e+02	2.560887e+02	2.571357e+02	2.579949e+02	2.589844e+02	2.599899e+02	2.608283e+02	2.617690e+02	2.624744e+02	2.628738e+02	2.630387e+02	2.630612e+02	2.629661e+02	2.627052e+02	2.623358e+02	2.615719e+02	2.605726e+02	2.592490e+02	2.565573e+02	2.502645e+02	2.410790e+02	2.380437e+02	2.398425e+02	2.433592e+02	2.497382e+02	2.528784e+02	2.583425e+02	2.670100e+02	2.723499e+02	2.766834e+02	2.811712e+02	2.844446e+02	2.872101e+02	2.898389e+02	2.917200e+02	2.930258e+02	2.941526e+02	2.948543e+02	2.954400e+02	2.960971e+02	2.971069e+02	2.986680e+02	3.005748e+02	3.019715e+02	3.012945e+02	
SCALARS Mach double 1
LOOKUP_TABLE default
4.506051e-01	6.747197e-01	7.727864e-01	8.979425e-01	1.002767e+00	1.076850e+00	1.128170e+00	1.167402e+00	1.195858e+00	1.223904e+00	1.245709e+00	1.265499e+00	1.275684e+00	1.289311e+00	1.303803e+00	1.297973e+00	1.243306e+00	9.836310e-01	8.124113e-01	7.901547e-01	7.865052e-01	7.817909e-01	7.759050e-01	7.683982e-01	7.691074e-01	7.730925e-01	7.791137e-01	7.963146e-01	8.152939e-01	8.408618e-01	8.813540e-01	9.263624e-01	9.715232e-01	1.037752e+00	1.094872e+00	1.141898e+00	1.229848e+00	1.303737e+00	1.349589e+00	1.397481e+00	1.427245e+00	1.452771e+00	1.470215e+00	1.466979e+00	1.459329e+00	1.450187e+00	1.431381e+00	1.411066e+00	1.411974e+00	1.400770e+00	1.341083e+00	9.896529e-01	7.595588e-01	7.551893e-01	7.651899e-01	7.718306e-01	7.777902e-01	7.805891e-01	7.827299e-01	7.822943e-01	7.789679e-01	7.754370e-01	7.605707e-01	7.428189e-01	7.284662e-01	7.084674e-01	6.881521e-01	6.713895e-01	6.541555e-01	6.418137e-01	6.341788e-01	6.284938e-01	6.379019e-01	6.542789e-01	6.717077e-01	6.972511e-01	7.220833e-01	7.464254e-01	7.678433e-01	7.715521e-01	7.704871e-01	7.611091e-01	7.451883e-01	7.331043e-01	7.161278e-01	7.004595e-01	6.859798e-01	6.709333e-01	6.587690e-01	6.473334e-01	6.363114e-01	6.252642e-01	6.141196e-01	6.027485e-01	5.906687e-01	5.769683e-01	5.614595e-01	5.438035e-01	5.123910e-01	4.700286e-01	5.645453e-01	5.608864e-01	5.557938e-01	5.578415e-01	5.549320e-01	5.537553e-01	5.519454e-01	5.496061e-01	5.474565e-01	5.451755e-01	5.421623e-01	5.390216e-01	5.340833e-01	5.311467e-01	5.258548e-01	5.202348e-01	5.215884e-01	5.203748e-01	5.251997e-01	5.317071e-01	5.416820e-01	5.684578e-01	5.993856e-01	6.336800e-01	6.738282e-01	7.075212e-01	7.448058e-01	7.626121e-01	7.555467e-01	7.433792e-01	7.177560e-01	6.883263e-01	6.678284e-01	6.432675e-01	6.241662e-01	6.205671e-01	6.153339e-01	6.174188e-01	6.345552e-01	6.516927e-01	6.756364e-01	7.063719e-01	7.340188e-01	7.684151e-01	8.049785e-01	8.311633e-01	8.615663e-01	8.871727e-01	9.065694e-01	9.250721e-01	9.354947e-01	9.484629e-01	9.549066e-01	9.533880e-01	9.486734e-01	9.359251e-01	9.254120e-01	9.132432e-01	9.008047e-01	8.903765e-01	8.786086e-01	8.697356e-01	8.646938e-01	8.626071e-01	8.623224e-01	8.635255e-01	8.668229e-01	8.714821e-01	8.810795e-01	8.935623e-01	9.099767e-01	9.429762e-01	1.018473e+00	1.125751e+00	1.160703e+00	1.140012e+00	1.099361e+00	1.024699e+00	9.873605e-01	9.211457e-01	8.115768e-01	7.400739e-01	6.788368e-01	6.112770e-01	5.584079e-01	5.105605e-01	4.614755e-01	4.234894e-01	3.953008e-01	3.694738e-01	3.525435e-01	3.378292e-01	3.205916e-01	2.922939e-01	2.426003e-01	1.635944e-01	5.926279e-02	1.214744e-01	
SCALARS Pressure_Coefficient double 1
LOOKUP_TABLE default