# vtk DataFile Version 3.0
vtk output
ASCII
DATASET UNSTRUCTURED_GRID
POINTS 18045 double
5.605661e-04	2.947162e-03	0.0	2.056951e-03	5.695455e-03	0.0	4.202319e-03	8.163634e-03	0.0	6.783117e-03	1.041745e-02	0.0	9.694447e-03	1.252894e-02	0.0	1.297665e-02	1.436568e-02	0.0	1.647091e-02	1.615954e-02	0.0	2.021557e-02	1.784824e-02	0.0	2.419500e-02	1.944738e-02	0.0	2.838587e-02	2.102998e-02	0.0	3.281821e-02	2.251506e-02	0.0	3.745667e-02	2.402288e-02	0.0	4.234005e-02	2.544255e-02	0.0	4.743679e-02	2.689956e-02	0.0	5.278364e-02	2.827983e-02	0.0	5.835571e-02	2.969986e-02	0.0	6.418493e-02	3.105233e-02	0.0	7.025237e-02	3.244166e-02	0.0	7.658483e-02	3.377120e-02	0.0	8.316816e-02	3.513310e-02	0.0	9.002475e-02	3.644054e-02	0.0	9.714370e-02	3.777607e-02	0.0	1.045441e-01	3.905910e-02	0.0	1.122168e-01	4.036710e-02	0.0	1.201784e-01	4.162156e-02	0.0	1.284202e-01	4.289981e-02	0.0	1.369573e-01	4.411904e-02	0.0	1.457802e-01	4.536298e-02	0.0	1.549031e-01	4.653792e-02	0.0	1.643148e-01	4.773982e-02	0.0	1.740287e-01	4.886115e-02	0.0	1.840327e-01	5.000181e-02	0.0	1.943355e-01	5.107273e-02	0.0	2.049275e-01	5.214358e-02	0.0	2.158119e-01	5.315689e-02	0.0	2.269811e-01	5.414769e-02	0.0	2.384325e-01	5.509599e-02	0.0	2.501605e-01	5.599551e-02	0.0	2.621568e-01	5.686968e-02	0.0	2.744171e-01	5.766650e-02	0.0	2.869285e-01	5.845226e-02	0.0	2.996860e-01	5.914313e-02	0.0	3.126748e-01	5.980987e-02	0.0	3.258857e-01	6.040473e-02	0.0	3.393052e-01	6.093837e-02	0.0	3.529191e-01	6.142736e-02	0.0	3.667143e-01	6.181582e-02	0.0	3.806736e-01	6.217176e-02	0.0	3.947822e-01	6.242453e-02	0.0	4.090219e-01	6.262093e-02	0.0	4.233756e-01	6.274975e-02	0.0	4.378248e-01	6.277670e-02	0.0	4.523508e-01	6.276044e-02	0.0	4.669340e-01	6.261506e-02	0.0	4.815550e-01	6.240566e-02	0.0	4.961940e-01	6.210672e-02	0.0	5.108299e-01	6.168689e-02	0.0	5.254449e-01	6.121455e-02	0.0	5.400152e-01	6.058352e-02	0.0	5.545244e-01	5.988852e-02	0.0	5.689516e-01	5.908944e-02	0.0	5.832767e-01	5.817807e-02	0.0	5.974858e-01	5.722198e-02	0.0	6.115537e-01	5.612164e-02	0.0	6.254717e-01	5.499283e-02	0.0	6.392192e-01	5.378037e-02	0.0	6.527828e-01	5.251533e-02	0.0	6.661500e-01	5.121607e-02	0.0	6.793031e-01	4.984634e-02	0.0	6.922365e-01	4.847350e-02	0.0	7.049312e-01	4.703292e-02	0.0	7.173842e-01	4.559271e-02	0.0	7.295815e-01	4.411701e-02	0.0	7.415174e-01	4.263135e-02	0.0	7.531846e-01	4.113641e-02	0.0	7.645756e-01	3.962703e-02	0.0	7.756884e-01	3.812953e-02	0.0	7.865144e-01	3.661579e-02	0.0	7.970563e-01	3.512895e-02	0.0	8.073054e-01	3.362853e-02	0.0	8.172673e-01	3.216530e-02	0.0	8.269344e-01	3.069354e-02	0.0	8.363140e-01	2.926294e-02	0.0	8.454008e-01	2.783503e-02	0.0	8.542024e-01	2.644897e-02	0.0	8.627157e-01	2.507210e-02	0.0	8.709486e-01	2.373845e-02	0.0	8.788996e-01	2.241702e-02	0.0	8.865776e-01	2.114064e-02	0.0	8.939818e-01	1.987889e-02	0.0	9.011220e-01	1.866214e-02	0.0	9.079986e-01	1.746362e-02	0.0	9.146212e-01	1.630745e-02	0.0	9.209919e-01	1.517445e-02	0.0	9.271195e-01	1.408046e-02	0.0	9.330077e-01	1.301301e-02	0.0	9.386645e-01	1.198097e-02	0.0	9.440951e-01	1.097857e-02	0.0	9.493065e-01	1.000846e-02	0.0	9.543051e-01	9.069908e-03	0.0	9.590971e-01	8.161145e-03	0.0	9.636893e-01	7.283900e-03	0.0	9.680877e-01	6.433813e-03	0.0	9.722993e-01	5.614616e-03	0.0	9.763299e-01	4.821897e-03	0.0	9.801863e-01	4.057784e-03	0.0	9.838745e-01	3.320264e-03	0.0	9.874004e-01	2.608193e-03	0.0	9.907706e-01	1.923223e-03	0.0	9.939900e-01	1.260155e-03	0.0	9.970648e-01	6.200429e-04	0.0	0.000000e+00	0.000000e+00	0.0	1.000000e+00	0.000000e+00	0.0	9.970047e-01	1.680846e-04	0.0	9.938683e-01	3.304815e-04	0.0	9.905853e-01	4.877856e-04	0.0	9.871495e-01	6.309150e-04	0.0	9.835554e-01	7.671970e-04	0.0	9.797967e-01	8.912214e-04	0.0	9.758674e-01	9.948415e-04	0.0	9.717614e-01	1.089250e-03	0.0	9.674723e-01	1.149361e-03	0.0	9.629939e-01	1.200067e-03	0.0	9.583199e-01	1.206540e-03	0.0	9.534440e-01	1.199186e-03	0.0	9.483602e-01	1.142975e-03	0.0	9.430618e-01	1.064224e-03	0.0	9.375431e-01	9.372182e-04	0.0	9.317975e-01	7.762079e-04	0.0	9.258196e-01	5.694785e-04	0.0	9.196032e-01	3.152166e-04	0.0	9.131426e-01	1.812620e-05	0.0	9.064330e-01	-3.413092e-04	0.0	8.994680e-01	-7.403317e-04	0.0	8.922446e-01	-1.214910e-03	0.0	8.847557e-01	-1.726998e-03	0.0	8.770002e-01	-2.325508e-03	0.0	8.689707e-01	-2.961094e-03	0.0	8.606679e-01	-3.689666e-03	0.0	8.520844e-01	-4.457278e-03	0.0	8.432228e-01	-5.321798e-03	0.0	8.340763e-01	-6.229344e-03	0.0	8.246488e-01	-7.233374e-03	0.0	8.149351e-01	-8.286198e-03	0.0	8.049399e-01	-9.431560e-03	0.0	7.946603e-01	-1.063284e-02	0.0	7.841014e-01	-1.192000e-02	0.0	7.732637e-01	-1.327158e-02	0.0	7.621521e-01	-1.470085e-02	0.0	7.507708e-01	-1.620257e-02	0.0	7.391244e-01	-1.777066e-02	0.0	7.272208e-01	-1.941424e-02	0.0	7.150643e-01	-2.110962e-02	0.0	7.026661e-01	-2.287684e-02	0.0	6.900315e-01	-2.468496e-02	0.0	6.771732e-01	-2.654881e-02	0.0	6.640997e-01	-2.844669e-02	0.0	6.508237e-01	-3.037973e-02	0.0	6.373566e-01	-3.233406e-02	0.0	6.237129e-01	-3.430920e-02	0.0	6.099045e-01	-3.628186e-02	0.0	5.959492e-01	-3.826435e-02	0.0	5.818586e-01	-4.021885e-02	0.0	5.676521e-01	-4.215814e-02	0.0	5.533453e-01	-4.406426e-02	0.0	5.389531e-01	-4.590623e-02	0.0	5.244993e-01	-4.772302e-02	0.0	5.099903e-01	-4.940492e-02	0.0	4.954559e-01	-5.103271e-02	0.0	4.809078e-01	-5.253650e-02	0.0	4.663659e-01	-5.390137e-02	0.0	4.518547e-01	-5.518084e-02	0.0	4.373823e-01	-5.621915e-02	0.0	4.229808e-01	-5.716715e-02	0.0	4.086615e-01	-5.790444e-02	0.0	3.944481e-01	-5.847479e-02	0.0	3.803596e-01	-5.891607e-02	0.0	3.664127e-01	-5.910801e-02	0.0	3.526275e-01	-5.921781e-02	0.0	3.390198e-01	-5.910686e-02	0.0	3.256060e-01	-5.889349e-02	0.0	3.123998e-01	-5.855493e-02	0.0	2.994160e-01	-5.808332e-02	0.0	2.866632e-01	-5.756493e-02	0.0	2.741573e-01	-5.690248e-02	0.0	2.619021e-01	-5.622068e-02	0.0	2.499106e-01	-5.544457e-02	0.0	2.381873e-01	-5.463413e-02	0.0	2.267400e-01	-5.376898e-02	0.0	2.155745e-01	-5.285347e-02	0.0	2.046932e-01	-5.191366e-02	0.0	1.941040e-01	-5.090840e-02	0.0	1.838033e-01	-4.990267e-02	0.0	1.738011e-01	-4.882062e-02	0.0	1.640885e-01	-4.775688e-02	0.0	1.546772e-01	-4.661157e-02	0.0	1.455545e-01	-4.548955e-02	0.0	1.367309e-01	-4.429867e-02	0.0	1.281932e-01	-4.312699e-02	0.0	1.199502e-01	-4.189432e-02	0.0	1.119877e-01	-4.067963e-02	0.0	1.043135e-01	-3.940999e-02	0.0	9.691211e-02	-3.815923e-02	0.0	8.979153e-02	-3.685515e-02	0.0	8.293425e-02	-3.557207e-02	0.0	7.635009e-02	-3.423156e-02	0.0	7.001813e-02	-3.291551e-02	0.0	6.395176e-02	-3.153444e-02	0.0	5.812540e-02	-3.018168e-02	0.0	5.255780e-02	-2.875370e-02	0.0	4.721773e-02	-2.735635e-02	0.0	4.213071e-02	-2.587244e-02	0.0	3.725995e-02	-2.441659e-02	0.0	3.263725e-02	-2.286575e-02	0.0	2.822419e-02	-2.132885e-02	0.0	2.405400e-02	-1.969555e-02	0.0	2.009943e-02	-1.803870e-02	0.0	1.637840e-02	-1.630040e-02	0.0	1.291032e-02	-1.445732e-02	0.0	9.649709e-03	-1.258354e-02	0.0	6.759196e-03	-1.044368e-02	0.0	4.193890e-03	-8.171770e-03	0.0	2.056920e-03	-5.696039e-03	0.0	5.614220e-04	-2.946999e-03	0.0	1.003000e+00	0.000000e+00	0.0	1.006024e+00	0.000000e+00	0.0	1.009097e+00	0.000000e+00	0.0	1.012243e+00	0.000000e+00	0.0	1.015487e+00	0.000000e+00	0.0	1.018857e+00	0.000000e+00	0.0	1.022378e+00	0.000000e+00	0.0	1.026079e+00	0.000000e+00	0.0	1.029990e+00	0.000000e+00	0.0	1.034143e+00	0.000000e+00	0.0	1.038571e+00	0.000000e+00	0.0	1.043310e+00	0.000000e+00	0.0	1.048397e+00	0.000000e+00	0.0	1.053874e+00	0.000000e+00	0.0	1.059785e+00	0.000000e+00	0.0	1.066177e+00	0.000000e+00	0.0	1.073103e+00	0.000000e+00	0.0	1.080617e+00	0.000000e+00	0.0	1.088780e+00	0.000000e+00	0.0	1.097659e+00	0.000000e+00	0.0	1.107323e+00	0.000000e+00	0.0	1.117852e+00	0.000000e+00	0.0	1.129331e+00	0.000000e+00	0.0	1.141851e+00	0.000000e+00	0.0	1.155513e+00	0.000000e+00	0.0	1.170427e+00	0.000000e+00	0.0	1.186715e+00	0.000000e+00	0.0	1.204506e+00	0.000000e+00	0.0	1.223943e+00	0.000000e+00	0.0	1.245185e+00	0.000000e+00	0.0	1.268401e+00	0.000000e+00	0.0	1.293778e+00	0.000000e+00	0.0	1.321522e+00	0.000000e+00	0.0	1.351855e+00	0.000000e+00	0.0	1.385021e+00	0.000000e+00	0.0	1.421289e+00	0.000000e+00	0.0	1.460949e+00	0.000000e+00	0.0	1.504321e+00	0.000000e+00	0.0	1.551755e+00	0.000000e+00	0.0	1.603633e+00	0.000000e+00	0.0	1.660371e+00	0.000000e+00	0.0	1.722428e+00	0.000000e+00	0.0	1.790304e+00	0.000000e+00	0.0	1.864544e+00	0.000000e+00	0.0	1.945746e+00	0.000000e+00	0.0	2.034565e+00	0.000000e+00	0.0	2.131716e+00	0.000000e+00	0.0	2.237981e+00	0.000000e+00	0.0	2.354216e+00	0.000000e+00	0.0	2.481358e+00	0.000000e+00	0.0	2.620429e+00	0.000000e+00	0.0	2.772551e+00	0.000000e+00	0.0	2.938948e+00	0.000000e+00	0.0	3.120960e+00	0.000000e+00	0.0	3.320053e+00	0.000000e+00	0.0	3.537831e+00	0.000000e+00	0.0	3.776047e+00	0.000000e+00	0.0	4.036620e+00	0.000000e+00	0.0	4.321648e+00	0.000000e+00	0.0	4.633427e+00	0.000000e+00	0.0	4.974468e+00	0.000000e+00	0.0	5.347517e+00	0.000000e+00	0.0	5.755579e+00	0.000000e+00	0.0	6.201940e+00	0.000000e+00	0.0	6.690195e+00	0.000000e+00	0.0	7.224276e+00	0.000000e+00	0.0	7.808483e+00	0.000000e+00	0.0	8.447523e+00	0.000000e+00	0.0	9.146541e+00	0.000000e+00	0.0	9.911168e+00	0.000000e+00	0.0	1.074756e+01	0.000000e+00	0.0	1.166245e+01	0.000000e+00	0.0	1.266322e+01	0.000000e+00	0.0	1.375791e+01	0.000000e+00	0.0	1.495535e+01	0.000000e+00	0.0	1.626518e+01	0.000000e+00	0.0	1.769795e+01	0.000000e+00	0.0	1.926519e+01	0.000000e+00	0.0	2.097953e+01	0.000000e+00	0.0	2.285478e+01	0.000000e+00	0.0	2.490603e+01	0.000000e+00	0.0	2.714981e+01	0.000000e+00	0.0	2.960419e+01	0.000000e+00	0.0	3.228893e+01	0.000000e+00	0.0	3.522566e+01	0.000000e+00	0.0	3.843802e+01	0.000000e+00	0.0	4.195189e+01	0.000000e+00	0.0	4.579556e+01	0.000000e+00	0.0	5.000000e+01	0.000000e+00	0.0	5.000000e+01	1.000000e-03	0.0	5.000000e+01	2.052340e-03	0.0	5.000000e+01	3.212098e-03	0.0	5.000000e+01	4.539975e-03	0.0	5.000000e+01	6.105473e-03	0.0	5.000000e+01	7.990529e-03	0.0	5.000000e+01	1.029381e-02	0.0	5.000000e+01	1.313585e-02	0.0	5.000000e+01	1.666543e-02	0.0	5.000000e+01	2.106726e-02	0.0	5.000000e+01	2.657175e-02	0.0	5.000000e+01	3.346699e-02	0.0	5.000000e+01	4.211387e-02	0.0	5.000000e+01	5.296498e-02	0.0	5.000000
[...]
POINT_DATA 18045

SCALARS Density double 1
LOOKUP_TABLE default
1.332786e+00	1.174956e+00	1.063723e+00	9.950670e-01	9.311408e-01	8.939393e-01	8.864892e-01	8.704943e-01	8.651779e-01	8.586297e-01	8.562754e-01	8.549202e-01	8.548065e-01	8.556776e-01	8.564158e-01	8.577719e-01	8.585601e-01	8.598503e-01	8.605575e-01	8.615869e-01	8.621565e-01	8.628133e-01	8.632038e-01	8.635246e-01	8.637727e-01	8.636850e-01	8.636803e-01	8.631157e-01	8.626548e-01	8.615252e-01	8.601583e-01	8.596351e-01	8.581915e-01	8.575734e-01	8.559429e-01	8.552360e-01	8.533850e-01	8.524824e-01	8.503982e-01	8.490539e-01	8.469733e-01	8.445301e-01	8.432731e-01	8.405429e-01	8.389767e-01	8.357908e-01	8.331778e-01	8.305240e-01	8.270697e-01	8.250998e-01	8.213226e-01	8.183924e-01	8.141750e-01	8.092072e-01	8.056389e-01	7.999296e-01	7.952149e-01	7.889600e-01	7.815808e-01	7.776374e-01	7.706255e-01	7.668531e-01	7.507999e-01	7.673591e-01	8.821661e-01	1.137841e+00	1.212471e+00	1.189462e+00	1.165272e+00	1.162538e+00	1.166467e+00	1.169126e+00	1.169999e+00	1.172845e+00	1.176232e+00	1.180569e+00	1.184650e+00	1.189299e+00	1.193939e+00	1.198846e+00	1.203767e+00	1.208674e+00	1.213832e+00	1.218677e+00	1.223602e+00	1.228376e+00	1.233158e+00	1.237884e+00	1.242625e+00	1.247250e+00	1.252017e+00	1.256555e+00	1.261367e+00	1.265892e+00	1.270665e+00	1.275218e+00	1.280060e+00	1.284723e+00	1.289624e+00	1.294441e+00	1.299441e+00	1.304515e+00	1.309827e+00	1.315455e+00	1.321211e+00	1.327650e+00	1.334227e+00	1.342259e+00	1.350580e+00	1.364856e+00	1.376988e+00	1.514031e+00	1.365776e+00	1.450652e+00	1.421695e+00	1.424351e+00	1.422932e+00	1.424780e+00	1.424732e+00	1.426200e+00	1.426541e+00	1.427453e+00	1.427741e+00	1.428004e+00	1.428109e+00	1.427739e+00	1.427582e+00	1.426774e+00	1.426365e+00	1.425242e+00	1.424571e+00	1.423137e+00	1.422089e+00	1.420375e+00	1.418929e+00	1.416947e+00	1.415052e+00	1.412831e+00	1.410559e+00	1.408098e+00	1.405418e+00	1.402702e+00	1.399637e+00	1.396655e+00	1.393228e+00	1.389970e+00	1.386190e+00	1.382568e+00	1.378319e+00	1.374137e+00	1.369314e+00	1.364498e+00	1.359214e+00	1.353636e+00	1.347932e+00	1.341729e+00	1.335456e+00	1.328855e+00	1.321887e+00	1.314871e+00	1.307278e+00	1.299533e+00	1.291757e+00	1.283090e+00	1.274933e+00	1.264829e+00	1.255692e+00	1.246922e+00	1.236872e+00	1.228790e+00	1.218136e+00	1.210758e+00	1.204655e+00	1.198477e+00	1.196269e+00	1.192271e+00	1.193080e+00	1.194759e+00	1.197842e+00	1.204298e+00	1.209334e+00	1.217189e+00	1.223148e+00	1.230619e+00	1.238252e+00	1.244548e+00	1.251631e+00	1.257247e+00	1.263742e+00	1.269004e+00	1.275170e+00	1.280437e+00	1.286541e+00	1.291954e+00	1.297905e+00	1.304069e+00	1.309978e+00	1.316301e+00	1.322521e+00	1.329168e+00	1.335841e+00	1.342795e+00	1.349955e+00	1.357226e+00	1.365026e+00	1.372860e+00	1.381526e+00	1.390210e+00	1.399985e+00	1.409899e+00	1.421076e+00	1.432837e+00	1.445716e+00	1.460142e+00	1.475039e+00	1.493450e+00	1.510795e+00	1.535492e+00	1.555416e+00	1.583724e+00	1.616383e+00	1.644448e+00	1.663408e+00	1.632340e+00	1.361440e+00	1.360267e+00	1.358960e+00	1.356249e+00	1.353715e+00	1.351433e+00	1.349312e+00	1.347367e+00	1.345581e+00	1.343924e+00	1.342374e+00	1.340909e+00	1.339512e+00	1.338164e+00	1.336850e+00	1.335556e+00	1.334269e+00	1.332975e+00	1.331664e+00	1.330325e+00	1.328952e+00	1.327536e+00	1.326076e+00	1.324567e+00	1.323011e+00	1.321410e+00	1.319769e+00	1.318093e+00	1.316390e+00	1.314669e+00	1.312939e+00	1.311208e+00	1.309485e+00	1.307779e+00	1.306095e+00	1.304440e+00	1.302813e+00	1.301213e+00	1.299633e+00	1.298059e+00	1.296472e+00	1.294847e+00	1.293158e+00	1.291394e+00	1.289575e+00	1.287773e+00	1.286133e+00	1.284869e+00	1.284220e+00	1.284377e+00	1.285390e+00	1.287109e+00	1.289197e+00	1.291229e+00	1.292854e+00	1.293902e+00	1.294402e+00	1.294505e+00	1.294376e+00	1.294140e+00	1.293866e+00	1.293594e+00	1.293347e+00	1.293138e+00	1.292971e+00	1.292845e+00	1.292749e+00	1.292675e+00	1.292615e+00	1.292565e+00	1.292521e+00	1.292483e+00	1.292450e+00	1.292420e+00	1.292394e+00	1.292371e+00	1.292351e+00	1.292333e+00	1.292318e+00	1.292304e+00	1.292292e+00	1.292281e+00	1.292269e+00	1.292257e+00	1.292243e+00	1.292220e+00	1.292196e+00	1.292125e+00	1.292030e+00	1.292030e+00	1.292030e+00	1.292030e+00	1.292030e+00	1.292030e+00	1.292030e+00	1.292030e+00	1.292029e+00	1.292029e+00	1.292029e+00	1.292028e+00	1.292027e+00	1.292027e+00	1.292027e+00	1.292028e+00	1.292030e+00	1.292030e+00	1.292023e+00	1.292008e+00	1.291991e+00	1.291990e+00	1.292027e+00	1.292101e+00	1.292163e+00	1.292120e+00	1.291889e+00	1.291488e+00	1.291084e+00	1.290905e+00	1.291071e+00	1.291477e+00	1.291882e+00	1.292115e+00	1.292181e+00	1.292185e+00	1.292197e+00	1.292222e+00	1.292242e+00	1.292252e+00	1.292248e+00	1.292235e+00	1.292179e+00	1.292077e+00	1.291720e+00	1.292031e+00	1.292031e+00	1.292031e+00	1.292031e+00	1.292031e+00	1.292031e+00	1.292031e+00	1.292031e+00	1.292032e+00	1.292032e+00	1.292032e+00	1.292033e+00	1.292033e+00	1.292034e+00	1.292035e+00	1.292036e+00	1.292037e+00	1.292039e+00	1.292041e+00	1.292043e+00	1.292046e+00	1.292049e+00	1.292053e+00	1.292059e+00	1.292065e+00	1.292073e+00	1.292082e+00	1.292094e+00	1.292107e+00	1.292123e+00	1.292141e+00	1.292162e+00	1.292184e+00	1.292207e+00	1.292230e+00	1.292251e+00	1.292271e+00	1.292288e+00	1.292303e+00	1.292324e+00	1.292356e+00	1.292437e+00	1.292586e+00	1.292978e+00	1.401562e+00	1.382089e+00	1.389128e+00	1.380579e+00	1.379845e+00	1.375055e+00	1.371900e+00	1.367235e+00	1.362568e+00	1.357168e+00	1.351497e+00	1.345512e+00	1.339406e+00	1.333250e+00	1.327130e+00	1.321061e+00	1.314981e+00	1.308729e+00	1.302102e+00	1.294944e+00	1.287245e+00	1.279140e+00	1.270881e+00	1.262843e+00	1.255604e+00	1.250064e+00	1.247198e+00	1.247491e+00	1.250637e+00	1.255687e+00	1.261501e+00	1.267177e+00	1.272203e+00	1.276399e+00	1.279783e+00	1.282461e+00	1.284558e+00	1.286194e+00	1.287467e+00	1.288453e+00	1.289217e+00	1.289808e+00	1.290232e+00	1.290498e+00	1.426875e+00	1.415065e+00	1.420396e+00	1.413156e+00	1.412389e+00	1.409543e+00	1.407719e+00	1.405335e+00	1.403185e+00	1.400864e+00	1.398462e+00	1.395845e+00	1.392976e+00	1.389781e+00	1.386201e+00	1.382182e+00	1.377678e+00	1.372665e+00	1.367145e+00	1.361165e+00	1.354834e+00	1.348327e+00	1.341901e+00	1.335863e+00	1.330500e+00	1.325965e+00	1.322213e+00	1.319031e+00	1.316169e+00	1.313446e+00	1.310794e+00	1.308235e+00	1.305832e+00	1.303644e+00	1.301708e+00	1.300035e+00	1.298618e+00	1.297436e+00	1.296462e+00	1.295669e+00	1.295028e+00	1.294518e+00	1.294133e+00	1.293849e+00	1.290498e+00	1.290498e+00	1.290498e+00	1.290497e+00	1.290497e+00	1.290497e+00	1.290497e+00	1.290497e+00	1.290497e+00	1.290496e+00	1.290496e+00	1.290496e+00	1.290496e+00	1.290496e+00	1.290495e+00	1.290495e+00	1.290495e+00	1.290495e+00	1.290494e+00	1.290494e+00	1.290494e+00	1.290493e+00	1.290493e+00	1.290492e+00	1.290492e+00	1.290491e+00	1.290491e+00	1.290490e+00	1.290489e+00	1.290489e+00	1.290488e+00	1.290487e+00	1.290486e+00	1.290485e+00	1.290484e+00	1.290482e+00	1.290481e+00	1.290480e+00	1.290478e+00	1.290476e+00	1.290475e+00	1.290472e+00	1.290470e+00	1.290468e+00	1.290465e+00	1.290463e+00	1.290460e+00	1.290456e+00	1.290453e+00	1.290449e+00	1.290445e+00	1.290441e+00	1.290436e+00	1.290432e+00	1.290426e+00	1.290421e+00	1.290415e+00	1.290409e+00	1.290403e+00	1.290396e+00	1.290389e+00	1.290382e+00	1.290375e+00	1.290369e+00	1.290362e+00	1.290356e+00	1.290350e+00	1.290346e+00	1.290343e+00	1.290341e+00	1.290342e+00	1.290346e+00	1.290352e+00	1.290363e+00	1.290379e+00	1.290400e+00	1.290428e+00	1.290462e+00	1.290505e+00	1.290557e+00	1.290618e+00	1.290690e+00	1.290775e+00	1.290871e+00	1.290990e+00	1.291115e+00	1.291302e+00	1.291468e+00	1.293849e+00	1.293849e+00	1.293849e+00	1.293849e+00	1.293849e+00	1.293849e+00	1.293849e+00	1.293849e+00	1.293850e+00	1.293850e+00	1.293850e+00	1.293850e+00	1.293850e+00	1.293850e+00	1.293850e+00	1.293851e+00	1.293851e+00	1.293851e+00	1.293851e+00	1.293852e+00	1.293852e+00	1.293852e+00	1.293853e+00	1.293853e+00	1.293854e+00	1.293854e+00	1.293855e+00	1.293855e+00	1.293856e+00	1.293857e+00	1.293857e+00	1.293858e+00	1.293859e+00	1.293860e+00	1.293861e+00	1.293862e+00	1.293864e+00	1.293865e+00	1.293866e+00	1.293868e+00	1.293870e+00	1.293872e+00	1.293874e+00	1.293876e+00	1.293879e+00	1.293882e+00	1.293885e+00	1.293888e+00	1.293892e+00	1.293895e+00	1.293900e+00	1.293904e+00	1.293909e+00	1.293914e+00	1.293920e+00	1.293926e+00	1.293932e+00	1.293939e+00	1.293947e+00	1.293954e+00	1.293962e+00	1.293971e+00	1.293980e+00	1.293989e+00	1.293998e+00	1.294007e+00	1.294016e+00	1.294024e+00	1.294032e+00	1.294038e+00	1.294043e+00	1.294046e+00	1.294046e+00	1.294043e+00	1.294036e+00	1.294024e+00	1.294006e+00	1.293982e+00	1.293949e+00	1.293909e+00	1.293858e+00	1.293798e+00	1.293725e+00	1.293642e+00	1.293541e+00	1.293435e+00	1.293285e+00	1.293157e+00	1.290498e+00	1.290498e+00	1.290498e+00	1.290498e+00	1.290499e+00	1.290499e+00	1.290499e+00	1.290499e+00	1.290499e+00	1.290500e+00	1.290500e+00	1.290500e+00	1.290500e+00	1.290501e+00	1.290501e+00	1.290501e+00	1.290502e+00	1.290502e+00	1.290503e+00	1.290503e+00	1.290503e+00	1.290504e+00	1.290504e+00	1.290505e+00	1.290506e+00	1.290506e+00	1.290507e+00	1.290508e+00	1.290509e+00	1.290509e+00	1.290510e+00	1.290511e+00	1.290512e+00	1.290513e+00	1.290515e+00	1.290516e+00	1.290517e+00	1.290519e+00	1.290520e+00	1.290522e+00	1.290523e+00	1.290525e+00	1.290527e+00	1.290529e+00	1.290532e+00	1.290534e+00	1.290537e+00	1.290540e+00	1.290543e+00	1.290546e+00	1.290549e+00	1.290553e+00	1.290556e+00	1.290561e+00	1.290566e+00	1.290571e+00	1.290577e+00	1.290584e+00	1.290591e+00	1.290599e+00	1.290608e+00	1.290618e+00	1.290629e+00	1.290641e+00	1.290655e+00	1.290669e+00	1.290685e+00	1.290703e+00	1.290722e+00	1.290743e+00	1.290766e+00	1.290790e+00	1.290817e+00	1.290846e+00	1.290877e+00	1.290910e+00	1.290946e+00	1.290983e+00	1.291024e+00	1.291066e+00	1.291110e+00	1.291157e+00	1.291205e+00	1.291255e+00	1.291306e+00	1.291359e+00	1.291413e+00	1.291467e+00	1.291521e+00	1.291575e+00	1.291628e+00	1.291681e+00	1.291732e+00	1.291781e+00	1.291829e+00	1.291874e+00	1.291917e+00	1.291957e+00	1.291994e+00	1.292029e+00	1.292061e+00	1.292091e+00	1.292118e+00	1.292143e+00	1.292165e+00	1.292186e+00	1.292205e+00	1.292223e+00	1.292240e+00	1.292255e+00	1.292270e+00	1.292285e+00	1.292300e+00	1.292315e+00	1.292330e+00	1.292346e+00	1.292362e+00	1.292380e+00	1.292399e+00	1.292420e+00	1.292442e+00	1.292466e+00	1.292492e+00	1.292520e+00	1.292550e+00	1.292581e+00	1.292615e+00	1.292651e+00	1.292689e+00	1.292728e+00	1.292768e+00	1.292810e+00	1.292853e+00	1.292896e+00	1.292940e+00	1.292984e+00	1.293027e+00	1.293071e+00	1.293113e+00	1.293155e+00	1.293196e+00	1.293235e+00	1.293274e+00	1.293310e+00	1.293345e+00	1.293379e+00	1.293411e+00	1.293441e+00	1.293470e+00	1.293496e+00	1.293522e+00	1.293546e+00	1.293568e+00	1.293589e+00	1.293608e+00	1.293626e+00	1.293643e+00	1.293658e+00	1.293673e+00	1.293686e+00	1.293699e+00	1.293710e+00	1.293721e+00	1.293730e+00	1.293740e+00	1.293748e+00	1.293756e+00	1.293763e+00	1.293769e+00	1.293775e+00	1.293781e+00	1.293786e+00	1.293791e+00	1.293795e+00	1.293799e+00	1.293803e+00	1.293807e+00	1.293810e+00	1.293813e+00	1.293816e+00	1.293818e+00	1.293820e+00	1.293823e+00	1.293825e+00	1.293826e+00	1.293828e+00	1.293830e+00	1.293831e+00	1.293833e+00	1.293834e+00	1.293835e+00	1.293836e+00	1.293837e+00	1.293838e+00	1.293839e+00	1.293840e+00	1.293840e+00	1.293841e+00	1.293842e+00	1.293842e+00	1.293843e+00	1.293843e+00	1.293844e+00	1.293844e+00	1.293845e+00	1.293845e+00	1.293845e+00	1.293846e+00	1.293846e+00	1.293846e+00	1.293847e+00	1.293847e+00	1.293847e+00	1.293847e+00	1.293847e+00	1.293848e+00	1.293848e+00	1.293848e+00	1.293848e+00	1.293848e+00	1.293848e+00	1.293848e+00	1.293848e+00	1.377395e+00	1.373385e+00	1.374748e+00	1.371345e+00	1.371431e+00	1.368955e+00	1.366957e+00	1.363465e+00	1.359494e+00	1.354628e+00	1.349314e+00	1.343612e+00	1.337733e+00	1.331771e+00	1.325816e+00	1.319891e+00	1.313937e+00	1.307795e+00	1.301263e+00	1.294190e+00	1.286566e+00	1.278526e+00	1.270324e+00	1.262339e+00	1.255154e+00	1.249680e+00	1.246893e+00	1.247269e+00	1.250490e+00	1.255598e+00	1.261452e+00	1.267152e+00	1.272190e+00	1.276392e+00	1.279780e+00	1.282460e+00	1.284558e+00	1.286194e+00	1.287467e+00	1.288453e+00	1.289217e+00	1.289808e+00	1.290232e+00	1.364931e+00	1.365456e+00	1.366047e+00	1.365698e+00	1.365802e+00	1.364348e+00	1.362624e+00	1.359661e+00	1.356071e+00	1.351644e+00	1.346721e+00	1.341381e+00	1.335809e+00	1.330105e+00	1.324364e+00	1.318618e+00	1.312811e+00	1.306794e+00	1.300369e+00	1.293388e+00	1.285844e+00	1.277875e+00	1.269736e+00	1.261807e+00	1.254680e+00	1.249277e+00	1.246573e+00	1.247037e+00	1.250338e+00	1.255506e+00	1.261401e+00	1.267125e+00	1.272177e+00	1.276386e+00	1.279777e+00	1.282458e+00	1.284557e+00	1.286193e+00	1.287466e+00	1.288453e+00	1.289217e+00	1.289808e+00	1.290232e+00	1.352117e+00	1.353663e+00	1.355098e+00	1.356093e+00	1.356834e+00	1.356683e+00	1.355959e+00	1.354142e+00	1.351476e+00	1.347863e+00	1.343576e+00	1.338746e+00	1.333575e+00	1.328193e+00	1.322713e+00	1.317182e+00	1.311555e+00	1.305688e+00	1.299391e+00	1.292519e+00	1.285070e+00	1.277181e+00	1.269110e+00	1.261243e+00	1.254180e+00	1.248852e+00	1.246237e+00	1.246794e+00	1.250178e+00	1.255410e+00	1.261348e+00	1.267098e+00	1.272163e+00	1.276380e+00	1.279774e+00	1.282457e+00	1.284557e+00	1.286193e+00	1.287466e+00	1.288453e+00	1.289217e+00	1.289808e+00	1.290232e+00	1.344299e+00	1.346175e+00	1.347928e+00	1.349354e+00	1.350439e+00	1.350848e+00	1.350552e+00	1.349266e+00	1.347090e+00	1.344011e+00	1.340234e+00	1.335885e+00	1.331134e+00	1.326110e+00	1.320927e+00	1.315640e+00	1.310213e+00	1.304512e+00	1.298354e+00	1.291599e+00	1.284251e+00	1.276448e+00	1.268450e+00	1.260648e+00	1.253653e+00	1.248405e+00	1.245884e+00	1.246539e+00	1.250010e+00	1.255309e+00	1.261292e+00	1.267069e+00	1.272149e+00	1.276373e+00	1.279771e+00	1.282455e+00	1.284556e+00	1.286193e+00	1.287466e+00	1.288453e+00	1.289217e+00	1.289808e+00	1.290232e+00	1.336286e+00	1.338317e+00	1.340233e+00	1.341943e+00	1.343337e+00	1.344186e+00	1.344361e+00	1.343671e+00	1.342116e+00	1.339686e+00	1.336513e+00	1.332712e+00	1.328433e+00	1.323808e+00	1.318958e+00	1.313946e+00	1.308747e+00	1.303235e+00	1.297234e+00	1.290612e+00	1.283376e+00	1.275668e+00	1.267750e+00	1.260019e+00	1.253096e+00	1.247933e+00	1.245512e+00	1.246271e+00	1.249835e+00	1.255204e+00	1.261234e+00	1.267039e+00	1.272134e+00	1.276366e+00	1.279768e+00	1.282454e+00	1.284555e+00	1.286193e+00	1.287466e+00	1.288453e+00	1.289217e+00	1.289808e+00	1.290232e+00	1.329802e+00	1.331931e+00	1.333964e+00	1.335836e+00	1.337405e+00	1.338490e+00	1.338932e+00	1.338582e+00	1.337406e+00	1.335414e+00	1.332707e+00	1.329380e+00	1.325553e+00	1.321336e+00	1.316839e+00	1.312126e+00	1.307175e+00	1.301870e+00	1.296041e+00	1.289564e+00	1.282450e+00	1.274843e+00	1.267010e+00	1.259355e+00	1.252508e+00	1.247435e+00	1.245120e+00	1.245989e+00	1.249650e+00	1.255094e+00	1.261174e+00	1.267008e+00	1.272119e+00	1.276358e+00	1.279764e+00	1.282452e+00	1.284554e+00	1.286192e+00	1.287466e+00	1.288453e+00	1.289217e+00	1.289809e+00	1.290232e+00	1.323403e+00	1.325596e+00	1.327711e+00	1.329689e+00	1.331388e+00	1.332652e+00	1.333321e+00	1.333274e+00	1.332466e+00	1.330910e+00	1.328674e+00	1.325829e+00	1.322464e+00	1.318670e+00	1.314547e+00	1.310156e+00	1.305477e+00	1.300400e+00	1.294761e+00	1.288443e+00	1.281462e+00	1.273967e+00	1.266226e+00	1.258652e+00	1.251887e+00	1.246910e+00	1.244707e+00	1.245693e+00	1.249457e+00	1.254979e+00	1.261110e+00	1.266975e+00	1.272102e+00	1.276351e+00	1.279761e+00	1.282451e+00	1.284554e+00	1.286192e+00	1.287466e+00	1.288453e+00	1.289217e+00	1.289809e+00	1.290233e+00	1.317688e+00	1.319923e+00	1.322093e+00	1.324139e+00	1.325925e+00	1.327304e+00	1.328124e+00	1.328275e+00	1.327721e+00	1.326479e+00	1.324611e+00	1.322174e+00	1.319231e+00	1.315848e+00	1.312105e+00	1.308051e+00	1.303662e+00	1.298830e+00	1.293397e+00	1.287252e+00	1.280415e+00	1.273039e+00	1.265397e+00	1.257909e+00	1.251232e+00	1.246357e+00	1.244273e+00	1.245382e+00	1.249254e+00	1.254858e+00	1.261044e+00	1.266940e+00	1.272086e+00	1.276343e+00	1.279757e+00	1.282449e+00	1.284553e+00	1.286191e+00	1.287465e+00	1.288453e+00	1.289217e+00	1.289809e+00	1.290233e+00	1.312085e+00	1.314354e+00	1.316568e+00	1.318669e+00	1.320523e+00	1.321992e+00	1.322932e+00	1.323249e+00	1.322914e+00	1.321956e+00	1.320428e+00	1.318375e+00	1.315838e+00	1.312862e+00	1.309504e+00	1.305799e+00	1.301718e+00	1.297149e+00	1.291939e+00	1.285981e+00	1.279302e+00	1.272054e+00	1.264518e+00	1.257123e+00	1.250540e+00	1.245773e+00	1.243816e+00	1.245055e+00	1.249041e+00	1.254732e+00	1.260975e+00	1.266905e+00	1.272068e+00	1.276334e+00	1.279753e+00	1.282447e+00	1.284552e+00	1.286191e+00	1.287465e+00	1.288452e+00	1.289217e+00	1.289809e+00	1.290233e+00	1.306806e+00	1.309109e+00	1.311362e+00	1.313505e+00	1.315411e+00	1.316945e+00	1.317971e+00	1.318407e+00	1.318235e+00	1.317492e+00	1.316236e+00	1.314509e+00	1.312335e+00	1.309740e+00	1.306760e+00	1.303410e+00	1.299649e+00	1.295359e+00	1.290388e+00	1.284632e+00	1.278120e+00	1.271012e+00	1.263589e+00	1.256293e+00	1.249809e+00	1.245158e+00	1.243335e+00	1.244712e+00	1.248819e+00	1.254600e+00	1.260902e+00	1.266867e+00	1.272049e+00	1.276325e+00	1.279749e+00	1.282445e+00	1.284551e+00	1.286191e+00	1.287465e+00	1.288452e+00	1.289217e+00	1.289809e+00	1.290233e+00	1.301736e+00	1.304047e+00	1.306315e+00	1.308480e+00	1.310415e+00	1.311989e+00	1.313076e+00	1.313601e+00	1.313559e+00	1.313000e+00	1.311983e+00	1.310549e+00	1.308712e+00	1.306481e+00	1.303872e+00	1.300881e+00	1.297450e+00	1.293453e+00	1.288736e+00	1.283196e+00	1.276866e+00	1.269906e+00	1.262606e+00	1.255415e+00	1.249037e+00	1.244510e+00	1.242829e+00	1.244351e+00	1.248586e+00	1.254462e+00	1.260827e+00	1.266829e+00	1.272030e+00	1.276316e+00	1.279744e+00	1.282443e+00	1.284550e+00	1.286190e+00	1.287465e+00	1.288452e+00	1.289217e+00	1.289809e+00	1.290233e+00	1.296756e+00	1.299089e+00	1.301383e+00	1.303574e+00	1.305540e+00	1.307153e+00	1.308290e+00	1.308889e+00	1.308952e+00	1.308541e+00	1.307722e+00	1.306539e+00	1.305001e+00	1.303107e+00	1.300854e+00	1.298218e+00	1.295123e+00	1.291431e+00	1.286983e+00	1.281674e+00	1.275537e+00	1.268736e+00	1.261565e+00	1.254486e+00	1.248222e+00	1.243826e+00	1.242297e+00	1.243973e+00	1.248342e+00	1.254318e+00	1.260748e+00	1.266788e+00	1.272010e+00	1.276306e+00	1.279740e+00	1.282441e+00	1.284549e+00	1.286190e+00	1.287465e+00	1.288452e+00	1.289217e+00	1.289809e+00	1.290233e+00	1.291940e+00	1.294275e+00	1.296575e+00	1.298776e+00	1.300756e+00	1.302390e+00	1.303561e+00	1.304213e+00	1.304361e+00	1.304074e+00	1.303427e+00	1.302466e+00	1.301200e+00	1.299619e+00	1.297707e+00	1.295421e+00	1.292667e+00	1.289291e+00	1.285124e+00	1.280059e+00	1.274129e+00	1.267497e+00	1.260464e+00	1.253505e+00	1.247362e+00	1.243105e+00	1.241737e+00	1.243576e+00	1.248086e+00	1.254168e+00	1.260667e+00	1.266746e+00	1.271989e+00	1.276296e+00	1.279735e+00	1.282438e+00	1.284548e+00	1.286189e+00	1.287464e+00	1.288452e+00	1.289217e+00	1.289809e+00	1.290233e+00	1.287064e+00	1.289426e+00	1.291753e+00	1.293982e+00	1.295991e+00	1.297657e+00	1.298868e+00	1.299573e+00	1.299796e+00	1.299617e+00	1.299119e+00	1.298352e+00	1.297327e+00	1.296033e+00	1.294443e+00	1.292498e+00	1.290083e+00	1.287030e+00	1.283157e+00	1.278349e+00	1.272637e+00	1.266185e+00	1.259299e+00	1.252467e+00	1.246453e+00	1.242346e+00	1.241148e+00	1.243160e+00	1.247819e+00	1.254012e+00	1.260581e+00	1.266702e+00	1.271968e+00	1.276286e+00	1.279730e+00	1.282436e+00	1.284547e+00	1.286189e+00	1.287464e+00	1.288452e+00	1.289217e+00	1.289809e+00	1.290233e+00	1.282397e+00	1.284755e+00	1.287084e+00	1.289315e+00	1.291330e+00	1.293006e+00	1.294234e+00	1.294971e+00	1.295251e+00	1.295160e+00	1.294788e+00	1.294191e+00	1.293383e+00	1.292352e+00	1.291066e+00	1.289451e+00	1.287375e+00	1.284649e+00	1.281080e+00	1.276541e+00	1.271060e+00	1.264798e+00	1.258066e+00	1.251369e+00	1.245492e+00	1.241545e+00	1.240529e+00	1.242724e+00	1.247540e+00	1.253848e+00	1.260493e+00	1.266656e+00	1.271945e+00	1.276275e+00	1.279725e+00	1.282434e+00	1.284546e+00	1.286188e+00	1.287464e+00	1.288452e+00	1.289217e+00	1.289809e+00	1.290233e+00	1.27758