# vtk DataFile Version 3.0
vtk output
ASCII
DATASET UNSTRUCTURED_GRID
POINTS 1832 double
1.000000e+02	0.000000e+00	0.0	9.917900e+01	1.278772e+01	0.0	9.672949e+01	2.536546e+01	0.0	9.269168e+01	3.752670e+01	0.0	8.713187e+01	4.907176e+01	0.0	8.014136e+01	5.981105e+01	0.0	7.183494e+01	6.956826e+01	0.0	6.234898e+01	7.818315e+01	0.0	5.183926e+01	8.551428e+01	0.0	4.047833e+01	9.144126e+01	0.0	2.845276e+01	9.586679e+01	0.0	1.595999e+01	9.871818e+01	0.0	3.205158e+00	9.994862e+01	0.0	-9.602303e+00	9.953791e+01	0.0	-2.225209e+01	9.749279e+01	0.0	-3.453651e+01	9.384684e+01	0.0	-4.625383e+01	8.865993e+01	0.0	-5.721167e+01	8.201723e+01	0.0	-6.723009e+01	7.402780e+01	0.0	-7.614460e+01	6.482284e+01	0.0	-8.380881e+01	5.455349e+01	0.0	-9.009689e+01	4.338837e+01	0.0	-9.490557e+01	3.151082e+01	0.0	-9.815592e+01	1.911586e+01	0.0	-9.979454e+01	6.407022e+00	0.0	-9.979454e+01	-6.407022e+00	0.0	-9.815592e+01	-1.911586e+01	0.0	-9.490557e+01	-3.151082e+01	0.0	-9.009689e+01	-4.338837e+01	0.0	-8.380881e+01	-5.455349e+01	0.0	-7.614460e+01	-6.482284e+01	0.0	-6.723009e+01	-7.402780e+01	0.0	-5.721167e+01	-8.201723e+01	0.0	-4.625383e+01	-8.865993e+01	0.0	-3.453651e+01	-9.384684e+01	0.0	-2.225209e+01	-9.749279e+01	0.0	-9.602303e+00	-9.953791e+01	0.0	3.205158e+00	-9.994862e+01	0.0	1.595999e+01	-9.871818e+01	0.0	2.845276e+01	-9.586679e+01	0.0	4.047833e+01	-9.144126e+01	0.0	5.183926e+01	-8.551428e+01	0.0	6.234898e+01	-7.818315e+01	0.0	7.183494e+01	-6.956826e+01	0.0	8.014136e+01	-5.981105e+01	0.0	8.713187e+01	-4.907176e+01	0.0	9.269168e+01	-3.752670e+01	0.0	9.672949e+01	-2.536546e+01	0.0	9.917900e+01	-1.278772e+01	0.0	0.000000e+00	0.000000e+00	0.0	3.408724e-03	3.657950e-03	0.0	7.098863e-03	7.267302e-03	0.0	1.163023e-02	1.016388e-02	0.0	1.642550e-02	1.298512e-02	0.0	2.168286e-02	1.537644e-02	0.0	2.717459e-02	1.773892e-02	0.0	3.298519e-02	1.987920e-02	0.0	3.901580e-02	2.204266e-02	0.0	4.529098e-02	2.417301e-02	0.0	5.176082e-02	2.642466e-02	0.0	5.842393e-02	2.881382e-02	0.0	6.521329e-02	3.151630e-02	0.0	7.216356e-02	3.445312e-02	0.0	7.920901e-02	3.775923e-02	0.0	8.645898e-02	4.119870e-02	0.0	9.411164e-02	4.433224e-02	0.0	1.020859e-01	4.727264e-02	0.0	1.105939e-01	4.937608e-02	0.0	1.194184e-01	5.106321e-02	0.0	1.286633e-01	5.167166e-02	0.0	1.381614e-01	5.217194e-02	0.0	1.479250e-01	5.187856e-02	0.0	1.579396e-01	5.157764e-02	0.0	1.682012e-01	5.118895e-02	0.0	1.787103e-01	5.076422e-02	0.0	1.894674e-01	5.046295e-02	0.0	2.004743e-01	5.056077e-02	0.0	2.117210e-01	5.066073e-02	0.0	2.231828e-01	5.127329e-02	0.0	2.348665e-01	5.211282e-02	0.0	2.467713e-01	5.301231e-02	0.0	2.588748e-01	5.416517e-02	0.0	2.711897e-01	5.533815e-02	0.0	2.837185e-01	5.641449e-02	0.0	2.964493e-01	5.743365e-02	0.0	3.093697e-01	5.842037e-02	0.0	3.224983e-01	5.888454e-02	0.0	3.357943e-01	5.935464e-02	0.0	3.492511e-01	5.947090e-02	0.0	3.628562e-01	5.931398e-02	0.0	3.765932e-01	5.911727e-02	0.0	3.904332e-01	5.837657e-02	0.0	4.043806e-01	5.763012e-02	0.0	4.184004e-01	5.658008e-02	0.0	4.324839e-01	5.529739e-02	0.0	4.466308e-01	5.398377e-02	0.0	4.607954e-01	5.234016e-02	0.0	4.749970e-01	5.069228e-02	0.0	4.892164e-01	4.900548e-02	0.0	5.034400e-01	4.729044e-02	0.0	5.176579e-01	4.559159e-02	0.0	5.318772e-01	4.410420e-02	0.0	5.460595e-01	4.262068e-02	0.0	5.602136e-01	4.140683e-02	0.0	5.743195e-01	4.039973e-02	0.0	5.883472e-01	3.943622e-02	0.0	6.023079e-01	3.900336e-02	0.0	6.161610e-01	3.857383e-02	0.0	6.298964e-01	3.850639e-02	0.0	6.435008e-01	3.871648e-02	0.0	6.569588e-01	3.895656e-02	0.0	6.702341e-01	3.983445e-02	0.0	6.833422e-01	4.070129e-02	0.0	6.962606e-01	4.171540e-02	0.0	7.089805e-01	4.286329e-02	0.0	7.215048e-01	4.399353e-02	0.0	7.338493e-01	4.479565e-02	0.0	7.459823e-01	4.557993e-02	0.0	7.579078e-01	4.582335e-02	0.0	7.696187e-01	4.556256e-02	0.0	7.810820e-01	4.511238e-02	0.0	7.922039e-01	4.343860e-02	0.0	8.030886e-01	4.180052e-02	0.0	8.135738e-01	3.939257e-02	0.0	8.237910e-01	3.689672e-02	0.0	8.337230e-01	3.429155e-02	0.0	8.433812e-01	3.162666e-02	0.0	8.528161e-01	2.910090e-02	0.0	8.620623e-01	2.684930e-02	0.0	8.710642e-01	2.465720e-02	0.0	8.798821e-01	2.279107e-02	0.0	8.884668e-01	2.102622e-02	0.0	8.968200e-01	1.937262e-02	0.0	9.049535e-01	1.787970e-02	0.0	9.128468e-01	1.643085e-02	0.0	9.205088e-01	1.505945e-02	0.0	9.279373e-01	1.373691e-02	0.0	9.351321e-01	1.244390e-02	0.0	9.420953e-01	1.117153e-02	0.0	9.488343e-01	9.939599e-03	0.0	9.553476e-01	8.717568e-03	0.0	9.616451e-01	7.536021e-03	0.0	9.677271e-01	6.372634e-03	0.0	9.736015e-01	5.245045e-03	0.0	9.792700e-01	4.137780e-03	0.0	9.847396e-01	3.062099e-03	0.0	9.900141e-01	2.011694e-03	0.0	9.950979e-01	9.842712e-04	0.0	1.000000e+00	0.000000e+00	0.0	9.950042e-01	2.030075e-04	0.0	9.898201e-01	3.959394e-04	0.0	9.844416e-01	5.404577e-04	0.0	9.788646e-01	6.412744e-04	0.0	9.730845e-01	7.181087e-04	0.0	9.670964e-01	7.377170e-04	0.0	9.608963e-01	7.347200e-04	0.0	9.544797e-01	6.669359e-04	0.0	9.478420e-01	5.831512e-04	0.0	9.409804e-01	4.046371e-04	0.0	9.338892e-01	2.201487e-04	0.0	9.265680e-01	-7.402187e-05	0.0	9.190106e-01	-4.014592e-04	0.0	9.112179e-01	-8.277900e-04	0.0	9.031905e-01	-1.416974e-03	0.0	8.949173e-01	-2.024202e-03	0.0	8.864334e-01	-3.029491e-03	0.0	8.777054e-01	-4.115577e-03	0.0	8.687696e-01	-5.498377e-03	0.0	8.596447e-01	-7.301727e-03	0.0	8.502730e-01	-9.165423e-03	0.0	8.408122e-01	-1.175980e-02	0.0	8.311066e-01	-1.442134e-02	0.0	8.211947e-01	-1.728283e-02	0.0	8.110584e-01	-2.027400e-02	0.0	8.006427e-01	-2.318920e-02	0.0	7.899250e-01	-2.593589e-02	0.0	7.789623e-01	-2.869871e-02	0.0	7.675963e-01	-3.072782e-02	0.0	7.559999e-01	-3.279804e-02	0.0	7.441158e-01	-3.448982e-02	0.0	7.319769e-01	-3.598132e-02	0.0	7.196210e-01	-3.746841e-02	0.0	7.070410e-01	-3.882308e-02	0.0	6.942631e-01	-4.019907e-02	0.0	6.813132e-01	-4.174117e-02	0.0	6.681939e-01	-4.338667e-02	0.0	6.549126e-01	-4.510017e-02	0.0	6.415303e-01	-4.723131e-02	0.0	6.280026e-01	-4.938561e-02	0.0	6.143769e-01	-5.176654e-02	0.0	6.006573e-01	-5.432246e-02	0.0	5.868324e-01	-5.690887e-02	0.0	5.729613e-01	-5.975626e-02	0.0	5.590103e-01	-6.262005e-02	0.0	5.450070e-01	-6.556150e-02	0.0	5.309651e-01	-6.857493e-02	0.0	5.168864e-01	-7.159627e-02	0.0	5.027526e-01	-7.446462e-02	0.0	4.886109e-01	-7.733223e-02	0.0	4.744327e-01	-7.995994e-02	0.0	4.602272e-01	-8.231408e-02	0.0	4.460588e-01	-8.466207e-02	0.0	4.318289e-01	-8.615672e-02	0.0	4.176621e-01	-8.761754e-02	0.0	4.035423e-01	-8.853917e-02	0.0	3.894821e-01	-8.889674e-02	0.0	3.755311e-01	-8.923922e-02	0.0	3.617197e-01	-8.846166e-02	0.0	3.480431e-01	-8.769169e-02	0.0	3.345737e-01	-8.632566e-02	0.0	3.213166e-01	-8.442998e-02	0.0	3.082287e-01	-8.255217e-02	0.0	2.955100e-01	-7.966693e-02	0.0	2.829766e-01	-7.682373e-02	0.0	2.707003e-01	-7.377466e-02	0.0	2.587052e-01	-7.045765e-02	0.0	2.469175e-01	-6.719797e-02	0.0	2.353573e-01	-6.394924e-02	0.0	2.240198e-01	-6.075222e-02	0.0	2.128854e-01	-5.770277e-02	0.0	2.018923e-01	-5.505678e-02	0.0	1.911355e-01	-5.246763e-02	0.0	1.805540e-01	-5.023447e-02	0.0	1.701711e-01	-4.826261e-02	0.0	1.600353e-01	-4.633766e-02	0.0	1.500970e-01	-4.475203e-02	0.0	1.404094e-01	-4.320706e-02	0.0	1.309696e-01	-4.172370e-02	0.0	1.217766e-01	-4.030745e-02	0.0	1.128344e-01	-3.892981e-02	0.0	1.041607e-01	-3.747306e-02	0.0	9.573645e-02	-3.604516e-02	0.0	8.756912e-02	-3.459481e-02	0.0	7.966034e-02	-3.309924e-02	0.0	7.199193e-02	-3.164467e-02	0.0	6.459215e-02	-3.007460e-02	0.0	5.742448e-02	-2.855378e-02	0.0	5.052175e-02	-2.692147e-02	0.0	4.385211e-02	-2.530008e-02	0.0	3.746900e-02	-2.348257e-02	0.0	3.131791e-02	-2.165435e-02	0.0	2.553415e-02	-1.942173e-02	0.0	2.004250e-02	-1.705523e-02	0.0	1.492176e-02	-1.437310e-02	0.0	1.026007e-02	-1.132583e-02	0.0	5.993405e-03	-8.071049e-03	0.0	2.309191e-03	-4.418841e-03	0.0	2.370407e-02	-2.560335e-02	0.0	2.892340e-02	-2.618506e-02	0.0	8.788965e+01	2.765690e+01	0.0	8.284472e+01	3.617571e+01	0.0	8.043210e+01	2.733893e+01	0.0	7.638716e+01	-1.341962e+01	0.0	7.822565e+01	-2.486253e+01	0.0	8.746379e+01	-1.794711e+01	0.0	8.662098e+01	-4.363689e+00	0.0	3.630911e+01	2.749119e+01	0.0	3.947739e+01	3.542104e+01	0.0	3.088518e+01	3.509196e+01	0.0	7.413052e+01	1.894731e+01	0.0	7.351540e+01	3.175863e+01	0.0	6.776710e+01	-3.325856e+01	0.0	7.541100e+01	-4.284167e+01	0.0	8.145850e+01	-3.592492e+01	0.0	8.752370e+01	-2.798831e+01	0.0	5.276998e+01	2.315039e+01	0.0	4.178743e+01	1.886867e+01	0.0	5.096863e+01	1.265799e+01	0.0	5.670547e+01	-6.355089e+01	0.0	5.575365e+01	-5.324503e+01	0.0	4.888723e+01	-6.420498e+01	0.0	6.887129e+01	5.985575e+01	0.0	7.265705e+01	5.064611e+01	0.0	5.964147e+01	6.569290e+01	0.0	4.600171e+01	-7.374265e+01	0.0	5.460079e+01	-7.211181e+01	0.0	6.605356e+01	-4.600087e+01	0.0	4.984857e+01	7.397027e+01	0.0	3.815436e+01	7.198699e+01	0.0	2.748250e+01	7.330861e+01	0.0	3.201649e+01	6.361987e+01	0.0	6.290244e+01	-6.722541e+01	0.0	2.558851e+01	8.125514e+01	0.0	3.274121e+01	7.888086e+01	0.0	3.733737e+01	-6.709438e+01	0.0	2.778857e+01	-7.560254e+01	0.0	3.863934e+01	-8.005776e+01	0.0	5.836655e+00	5.175068e+01	0.0	-3.158043e+00	4.828828e+01	0.0	3.965877e+00	4.313440e+01	0.0	5.123136e-01	-8.605128e-02	0.0	9.063229e-01	3.160560e-02	0.0	9.030665e-01	2.438472e-02	0.0	9.098798e-01	2.331082e-02	0.0	8.891543e-01	3.483703e-02	0.0	8.886166e-01	4.520714e-02	0.0	8.795930e-01	3.807053e-02	0.0	9.265479e-01	1.919810e-02	0.0	9.160528e-01	2.134194e-02	0.0	1.102221e-01	-5.021286e-02	0.0	1.185814e-01	-4.962346e-02	0.0	1.136086e-01	-4.478032e-02	0.0	1.328657e-01	5.750232e-02	0.0	1.272493e-01	5.976229e-02	0.0	7.051517e-01	-1.032257e-01	0.0	6.837463e-01	-8.473130e-02	0.0	6.728769e-01	-1.079286e-01	0.0	3.149053e-01	6.856259e-02	0.0	3.021684e-01	6.671946e-02	0.0	2.940015e-01	7.442189e-02	0.0	2.811119e-01	6.855217e-02	0.0	2.916468e-01	6.462615e-02	0.0	1.989215e-01	2.164208e-01	0.0	1.391492e-01	1.754986e-01	0.0	1.896931e-01	1.554395e-01	0.0	2.162793e-01	1.022183e-01	0.0	2.178478e-01	8.343522e-02	0.0	2.306580e-01	9.079822e-02	0.0	5.672445e-01	-6.871354e-02	0.0	5.789091e-01	-7.024526e-02	0.0	6.560358e-01	5.353140e-02	0.0	6.427412e-01	5.893073e-02	0.0	6.472050e-01	4.771515e-02	0.0	6.221491e-01	4.977830e-02	0.0	6.355937e-01	4.918879e-02	
[...]
POINT_DATA 1832

SCALARS Density double 1
LOOKUP_TABLE default
1.291674e+00	1.291695e+00	1.292040e+00	1.292199e+00	1.292120e+00	1.292049e+00	1.292006e+00	1.291952e+00	1.291892e+00	1.291835e+00	1.291791e+00	1.291768e+00	1.291776e+00	1.291828e+00	1.291911e+00	1.291996e+00	1.292073e+00	1.292132e+00	1.292179e+00	1.292214e+00	1.292239e+00	1.292258e+00	1.292272e+00	1.292284e+00	1.292294e+00	1.292305e+00	1.292315e+00	1.292328e+00	1.292344e+00	1.292365e+00	1.292392e+00	1.292426e+00	1.292472e+00	1.292526e+00	1.292595e+00	1.292667e+00	1.292746e+00	1.292804e+00	1.292818e+00	1.292791e+00	1.292739e+00	1.292673e+00	1.292605e+00	1.292535e+00	1.292466e+00	1.292415e+00	1.292415e+00	1.292321e+00	1.291996e+00	1.507288e+00	1.180200e+00	1.192755e+00	1.148208e+00	1.147872e+00	1.146708e+00	1.169061e+00	1.187340e+00	1.215969e+00	1.234551e+00	1.253929e+00	1.266119e+00	1.263816e+00	1.245158e+00	1.202713e+00	1.110866e+00	1.011182e+00	8.962260e-01	7.861583e-01	6.862325e-01	6.118944e-01	5.598759e-01	5.221066e-01	5.231309e-01	5.319880e-01	5.482387e-01	5.840225e-01	6.186707e-01	6.589953e-01	7.203937e-01	7.552434e-01	7.828455e-01	8.122270e-01	8.207551e-01	8.184347e-01	8.162357e-01	7.895997e-01	7.680593e-01	7.612213e-01	7.401266e-01	7.358395e-01	7.183970e-01	6.953076e-01	6.863164e-01	6.861391e-01	7.998297e-01	1.085897e+00	1.198288e+00	1.202558e+00	1.202915e+00	1.215887e+00	1.232844e+00	1.241954e+00	1.251401e+00	1.262150e+00	1.263604e+00	1.272402e+00	1.274108e+00	1.269829e+00	1.273465e+00	1.263999e+00	1.262593e+00	1.250243e+00	1.223330e+00	1.204355e+00	1.174155e+00	1.126968e+00	1.085026e+00	1.033367e+00	9.634519e-01	9.118704e-01	8.297164e-01	7.911307e-01	8.543878e-01	1.003596e+00	1.131491e+00	1.168371e+00	1.199483e+00	1.231505e+00	1.244809e+00	1.256492e+00	1.266713e+00	1.266521e+00	1.271322e+00	1.273417e+00	1.273840e+00	1.276489e+00	1.278292e+00	1.280848e+00	1.285353e+00	1.289605e+00	1.294835e+00	1.300684e+00	1.306489e+00	1.313279e+00	1.320782e+00	1.330061e+00	1.339599e+00	1.365084e+00	1.341059e+00	1.424004e+00	1.396699e+00	1.398631e+00	1.401254e+00	1.402548e+00	1.403909e+00	1.405183e+00	1.407557e+00	1.408663e+00	1.410735e+00	1.413031e+00	1.414354e+00	1.419533e+00	1.418998e+00	1.425845e+00	1.427574e+00	1.425827e+00	1.431744e+00	1.423170e+00	1.425484e+00	1.418281e+00	1.398152e+00	1.384353e+00	1.360254e+00	1.334636e+00	1.315106e+00	1.279840e+00	1.264228e+00	1.262129e+00	1.254447e+00	1.266150e+00	1.272724e+00	1.280497e+00	1.294357e+00	1.302632e+00	1.305654e+00	1.315063e+00	1.314781e+00	1.309753e+00	1.308526e+00	1.299021e+00	1.294135e+00	1.285090e+00	1.271962e+00	1.261655e+00	1.246351e+00	1.225293e+00	1.213021e+00	1.202751e+00	1.135957e+00	9.208155e-01	7.471969e-01	7.264139e-01	7.526825e-01	7.694599e-01	8.111530e-01	8.295322e-01	8.787358e-01	9.276348e-01	9.510235e-01	1.001493e+00	1.024017e+00	1.075617e+00	1.144720e+00	1.176511e+00	1.221189e+00	1.262076e+00	1.289984e+00	1.319812e+00	1.349835e+00	1.365246e+00	1.377449e+00	1.391322e+00	1.390083e+00	1.395964e+00	1.397273e+00	1.390696e+00	1.390473e+00	1.388786e+00	1.384435e+00	1.383782e+00	1.386528e+00	1.386574e+00	1.392147e+00	1.393860e+00	1.398981e+00	1.404835e+00	1.410036e+00	1.415358e+00	1.424717e+00	1.430151e+00	1.442900e+00	1.471993e+00	1.496190e+00	1.539235e+00	1.578720e+00	1.604597e+00	1.685065e+00	1.488231e+00	1.464765e+00	1.292110e+00	1.292126e+00	1.292051e+00	1.292160e+00	1.292316e+00	1.292212e+00	1.291913e+00	1.291925e+00	1.291852e+00	1.291735e+00	1.292014e+00	1.292106e+00	1.292416e+00	1.292421e+00	1.292378e+00	1.292345e+00	1.292038e+00	1.291976e+00	1.291934e+00	1.292592e+00	1.292559e+00	1.292650e+00	1.292001e+00	1.292039e+00	1.291949e+00	1.292687e+00	1.292628e+00	1.292465e+00	1.291883e+00	1.291803e+00	1.291718e+00	1.291729e+00	1.292569e+00	1.291734e+00	1.291774e+00	1.292747e+00	1.292820e+00	1.292746e+00	1.291332e+00	1.291296e+00	1.291156e+00	1.223298e+00	1.276643e+00	1.274316e+00	1.276048e+00	1.269515e+00	1.267689e+00	1.262315e+00	1.281031e+00	1.277516e+00	1.389068e+00	1.388207e+00	1.386552e+00	6.297492e-01	6.919928e-01	1.310257e+00	1.311964e+00	1.310270e+00	8.028706e-01	8.183935e-01	8.339967e-01	8.280643e-01	8.225011e-01	9.078323e-01	1.008942e+00	8.262947e-01	6.001836e-01	5.809753e-01	5.981682e-01	1.268889e+00	1.278297e+00	1.252446e+00	1.256208e+00	1.260155e+00	1.266474e+00	1.264213e+00	1.045585e+00	9.909871e-01	1.035224e+00	1.147336e+00	1.132387e+00	1.107166e+00	1.121787e+00	1.076935e+00	1.090711e+00	1.067424e+00	1.186142e+00	1.180714e+00	1.133452e+00	1.411848e+00	1.413704e+00	1.411645e+00	1.268429e+00	1.246142e+00	1.238558e+00	1.285985e+00	1.290819e+00	1.289135e+00	1.296640e+00	1.296783e+00	1.291752e+00	1.302958e+00	1.306464e+00	1.273086e+00	1.268982e+00	1.312298e+00	1.320006e+00	1.316712e+00	1.335886e+00	1.333225e+00	1.330272e+00	1.400790e+00	1.392432e+00	1.404254e+00	1.396625e+00	1.395667e+00	1.391948e+00	1.340308e+00	1.354431e+00	1.398811e+00	1.405961e+00	1.397269e+00	1.316587e+00	1.330444e+00	1.320409e+00	1.320595e+00	1.412260e+00	1.387581e+00	1.393075e+00	1.406342e+00	1.298497e+00	1.304725e+00	1.284993e+00	1.420109e+00	1.419389e+00	1.423950e+00	1.273488e+00	1.272481e+00	1.416116e+00	1.419846e+00	1.418339e+00	1.424483e+00	1.422021e+00	1.424583e+00	1.418433e+00	1.420079e+00	1.418811e+00	1.413611e+00	1.286740e+00	8.666866e-01	8.698758e-01	8.161221e-01	8.189649e-01	7.997155e-01	8.113722e-01	6.658078e-01	6.248370e-01	7.067397e-01	6.029815e-01	6.606215e-01	7.650196e-01	7.454543e-01	7.501949e-01	7.616659e-01	7.847479e-01	7.834038e-01	6.982482e-01	6.887049e-01	7.121925e-01	1.327345e+00	1.335522e+00	1.242863e+00	1.143659e+00	1.253425e+00	1.246790e+00	1.252712e+00	1.237292e+00	1.346850e+00	1.340283e+00	1.373101e+00	1.347799e+00	1.293089e+00	1.289103e+00	1.284522e+00	1.224355e+00	1.083181e+00	1.004695e+00	1.207157e+00	1.109024e+00	1.216157e+00	1.271897e+00	1.264423e+00	1.253270e+00	7.913246e-01	7.634851e-01	1.309801e+00	1.315859e+00	1.319632e+00	1.309470e+00	1.326864e+00	1.330557e+00	1.327111e+00	1.250695e+00	1.255997e+00	1.309678e+00	1.313148e+00	7.774965e-01	7.851925e-01	7.428786e-01	1.312982e+00	1.316215e+00	1.323426e+00	1.286101e+00	1.289065e+00	1.287408e+00	8.509731e-01	1.312087e+00	8.856171e-01	9.223388e-01	8.690841e-01	1.004401e+00	1.056371e+00	1.105934e+00	9.292158e-01	8.491284e-01	7.982377e-01	1.255180e+00	1.226141e+00	1.221574e+00	1.219692e+00	1.279990e+00	1.230157e+00	1.303609e+00	1.291066e+00	1.300465e+00	1.286146e+00	1.281980e+00	1.291111e+00	1.291322e+00	1.291743e+00	1.291675e+00	1.240902e+00	1.250851e+00	1.227422e+00	1.213332e+00	1.189870e+00	1.098378e+00	1.134201e+00	1.276620e+00	1.304770e+00	1.280838e+00	7.066002e-01	6.132916e-01	6.373748e-01	1.246431e+00	1.228188e+00	1.206872e+00	1.207870e+00	1.238465e+00	1.223665e+00	1.201983e+00	1.237999e+00	1.247523e+00	8.363360e-01	1.407887e+00	1.409688e+00	1.407582e+00	1.355362e+00	1.333985e+00	1.345094e+00	1.275969e+00	1.269368e+00	1.301122e+00	1.308650e+00	1.304107e+00	1.308894e+00	1.305586e+00	1.269646e+00	1.301720e+00	1.312186e+00	9.863384e-01	9.366652e-01	9.448407e-01	1.393266e+00	1.388665e+00	1.392035e+00	1.388915e+00	1.135599e+00	1.191988e+00	1.129525e+00	1.255752e+00	1.259992e+00	1.252233e+00	1.248244e+00	1.253222e+00	1.243526e+00	9.572923e-01	1.006361e+00	9.444113e-01	8.141388e-01	8.483424e-01	8.938248e-01	8.985817e-01	1.292847e+00	1.292792e+00	1.297251e+00	1.299360e+00	1.298334e+00	1.030517e+00	1.076039e+00	1.076403e+00	1.204413e+00	1.245011e+00	1.267639e+00	1.292757e+00	1.292757e+00	1.292868e+00	1.272464e+00	1.250625e+00	1.281649e+00	1.349531e+00	1.364925e+00	1.302677e+00	1.323818e+00	1.290755e+00	1.369347e+00	1.358663e+00	1.370505e+00	1.292654e+00	1.292624e+00	1.268621e+00	1.269851e+00	1.264871e+00	1.257426e+00	1.261220e+00	1.118694e+00	1.168413e+00	1.119731e+00	1.255651e+00	1.236748e+00	1.242573e+00	1.249379e+00	1.291197e+00	1.290832e+00	1.291127e+00	1.227330e+00	1.236070e+00	1.227740e+00	1.217697e+00	1.389373e+00	1.389464e+00	1.389214e+00	1.394099e+00	1.393805e+00	1.382355e+00	1.405362e+00	1.402814e+00	1.410819e+00	1.390618e+00	1.421208e+00	1.385098e+00	1.375569e+00	1.381271e+00	1.279823e+00	1.269646e+00	1.307206e+00	1.445641e+00	1.431838e+00	1.407479e+00	1.413930e+00	1.219698e+00	1.268287e+00	1.260333e+00	1.058310e+00	1.161908e+00	9.953425e-01	1.212676e+00	1.204207e+00	1.203343e+00	1.174545e+00	1.199247e+00	8.059440e-01	8.780516e-01	8.112533e-01	1.235930e+00	1.263014e+00	1.257510e+00	7.314608e-01	1.291898e+00	1.291809e+00	7.422976e-01	5.374114e-01	5.460380e-01	5.513031e-01	1.291813e+00	1.291950e+00	6.549356e-01	6.328106e-01	7.746478e-01	1.186015e+00	1.161537e+00	1.211235e+00	1.185228e+00	1.292024e+00	1.250724e+00	1.291558e+00	1.291116e+00	1.292172e+00	1.292033e+00	1.292008e+00	1.291725e+00	1.292310e+00	1.292284e+00	1.292245e+00	1.290713e+00	1.291342e+00	1.288374e+00	1.292196e+00	1.292184e+00	1.292143e+00	1.238723e+00	1.255171e+00	1.292276e+00	1.292250e+00	1.292276e+00	1.292211e+00	1.292219e+00	1.292308e+00	1.292325e+00	1.292336e+00	1.292349e+00	1.292426e+00	1.292479e+00	1.292474e+00	1.292425e+00	1.292498e+00	1.292382e+00	1.292367e+00	1.292225e+00	1.292177e+00	1.292494e+00	1.292457e+00	1.292420e+00	1.292557e+00	1.299226e+00	1.296470e+00	1.299049e+00	1.292495e+00	1.294375e+00	1.294064e+00	1.295394e+00	1.296355e+00	1.299599e+00	1.292608e+00	1.392801e+00	1.365773e+00	1.375678e+00	1.386829e+00	1.388700e+00	1.301948e+00	1.310924e+00	1.303790e+00	1.292677e+00	1.293407e+00	1.293039e+00	1.293110e+00	1.459873e+00	1.297487e+00	1.292885e+00	1.292846e+00	1.303159e+00	1.302826e+00	1.300094e+00	1.432344e+00	1.420347e+00	1.291376e+00	1.571702e+00	1.045575e+00	1.019598e+00	1.381534e+00	1.300294e+00	1.298250e+00	1.536735e+00	1.292291e+00	1.240522e+00	1.260200e+00	1.252275e+00	1.286864e+00	1.288615e+00	1.288766e+00	1.292103e+00	1.291999e+00	1.292147e+00	1.292368e+00	1.291581e+00	1.404365e+00	1.402639e+00	1.293154e+00	1.292766e+00	1.292362e+00	1.292715e+00	1.292829e+00	1.292871e+00	1.292145e+00	1.292825e+00	1.292837e+00	1.293360e+00	1.293795e+00	1.291830e+00	1.291726e+00	1.291847e+00	1.291775e+00	1.292006e+00	1.291919e+00	1.292505e+00	1.292512e+00	1.292456e+00	1.291866e+00	1.291919e+00	1.292106e+00	1.293399e+00	1.292877e+00	1.293101e+00	1.292668e+00	1.292573e+00	1.347497e+00	1.389406e+00	1.379397e+00	1.292177e+00	1.292226e+00	1.293447e+00	1.293143e+00	1.293669e+00	1.295210e+00	1.294796e+00	1.293898e+00	1.291671e+00	1.291398e+00	1.291669e+00	1.291887e+00	1.291755e+00	1.289693e+00	1.290640e+00	1.289415e+00	1.293724e+00	1.293041e+00	1.292630e+00	1.292557e+00	1.292630e+00	1.292566e+00	1.292310e+00	1.292328e+00	1.292350e+00	1.292264e+00	1.291739e+00	1.291673e+00	1.292912e+00	1.293068e+00	1.293141e+00	1.293006e+00	1.292072e+00	1.292025e+00	1.291956e+00	1.291559e+00	1.291808e+00	1.291907e+00	1.291949e+00	1.291888e+00	1.292004e+00	1.292317e+00	1.292602e+00	1.292792e+00	1.292715e+00	1.292856e+00	1.292578e+00	1.291892e+00	1.291966e+00	1.292155e+00	1.292425e+00	1.292883e+00	9.987532e-01	1.246494e+00	1.247752e+00	1.258556e+00	1.290410e+00	1.293012e+00	1.291808e+00	1.291934e+00	1.291826e+00	1.292195e+00	1.292111e+00	1.292166e+00	1.292378e+00	1.292387e+00	1.292670e+00	1.291383e+00	1.292322e+00	1.292678e+00	1.293847e+00	1.293922e+00	1.293459e+00	1.293145e+00	1.290582e+00	1.295319e+00	1.294472e+00	1.290340e+00	1.026462e+00	1.137677e+00	1.292233e+00	1.292746e+00	1.292441e+00	1.291904e+00	1.291702e+00	1.291673e+00	1.291669e+00	1.292242e+00	1.292370e+00	1.292296e+00	1.292343e+00	1.292378e+00	1.292033e+00	1.292114e+00	1.292914e+00	1.292947e+00	1.291784e+00	1.291930e+00	1.291880e+00	1.292802e+00	1.292398e+00	1.292015e+00	1.292448e+00	1.292489e+00	1.292547e+00	1.292936e+00	1.292909e+00	1.291742e+00	1.291568e+00	1.291496e+00	1.291640e+00	1.292369e+00	1.292581e+00	1.292062e+00	1.291926e+00	1.291910e+00	1.292496e+00	1.292589e+00	1.292773e+00	1.292681e+00	1.291813e+00	1.291762e+00	1.291944e+00	1.296557e+00	1.315851e+00	1.291422e+00	1.292539e+00	1.292411e+00	1.291907e+00	1.292325e+00	1.292406e+00	1.292438e+00	1.291856e+00	1.292063e+00	1.291959e+00	1.291534e+00	1.291471e+00	1.292972e+00	1.293098e+00	1.291918e+00	1.292928e+00	1.291856e+00	1.291624e+00	1.291576e+00	1.292083e+00	1.292809e+00	1.292716e+00	1.293262e+00	1.291976e+00	1.291549e+00	1.291611e+00	1.292519e+00	1.292580e+00	1.291484e+00	1.293055e+00	1.293061e+00	1.401589e+00	1.400877e+00	1.401151e+00	1.294450e+00	1.313134e+00	1.308662e+00	1.306852e+00	1.291827e+00	1.290410e+00	1.294197e+00	1.292781e+00	1.291968e+00	1.290697e+00	1.291776e+00	1.294771e+00	1.294184e+00	1.281172e+00	1.290140e+00	1.282525e+00	1.295130e+00	1.295458e+00	1.296683e+00	1.371962e+00	1.379174e+00	1.395725e+00	1.296256e+00	1.291235e+00	1.291737e+00	1.291132e+00	1.290646e+00	1.290831e+00	1.293261e+00	1.289515e+00	1.291342e+00	1.505138e+00	1.482486e+00	1.266697e+00	1.266396e+00	1.267055e+00	1.296688e+00	1.295912e+00	1.290557e+00	1.290839e+00	1.294501e+00	1.289519e+00	1.290647e+00	1.291331e+00	1.294824e+00	1.397086e+00	1.401069e+00	1.396993e+00	1.292662e+00	1.285634e+00	1.450726e+00	1.476477e+00	1.483760e+00	9.400971e-01	9.313001e-01	1.290915e+00	1.288927e+00	1.292776e+00	1.292432e+00	1.294516e+00	1.186332e+00	1.216883e+00	1.296031e+00	1.297060e+00	1.289480e+00	1.295623e+00	1.274756e+00	1.290271e+00	1.290169e+00	1.297298e+00	1.295534e+00	1.282095e+00	1.286998e+00	1.291045e+00	1.283705e+00	1.287779e+00	1.270677e+00	1.259654e+00	1.279665e+00	1.283857e+00	1.297442e+00	1.395582e+00	1.300197e+00	1.301743e+00	1.293546e+00	1.292354e+00	1.217584e+00	1.273452e+00	1.302157e+00	1.304177e+00	1.302452e+00	1.419159e+00	1.432709e+00	1.425906e+00	9.194008e-01	9.890434e-01	9.095337e-01	1.293474e+00	1.281599e+00	1.271646e+00	1.278901e+00	1.295259e+00	1.253411e+00	1.303340e+00	1.302359e+00	1.263170e+00	1.275076e+00	1.288423e+00	1.227944e+00	1.214542e+00	1.268097e+00	1.295098e+00	1.296445e+00	1.303959e+00	1.304440e+00	1.285913e+00	1.291372e+00	1.244785e+00	1.322116e+00	1.313326e+00	1.308268e+00	1.435094e+00	1.422928e+00	1.295495e+00	1.303302e+00	1.293871e+00	1.298705e+00	1.302965e+00	1.285704e+00	1.308781e+00	1.308434e+00	5.364837e-01	8.798058e-01	8.216653e-01	1.300689e+00	1.310559e+00	1.289186e+00	1.288792e+00	1.298962e+00	1.311170e+00	1.299479e+00	1.297462e+00	1.314856e+00	1.317779e+00	1.286351e+00	1.299265e+00	1.302037e+00	1.316509e+00	1.309701e+00	1.322832e+00	1.328613e+00	1.319824e+00	1.291107e+00	1.353661e+00	1.371557e+00	1.376941e+00	1.317974e+00	1.223025e+00	1.274318e+00	1.321084e+00	1.288591e+00	1.195068e+00	1.240134e+00	1.269856e+00	1.296778e+00	1.317631e+00	1.338670e+00	1.289242e+00	1.244090e+00	8.368531e-01	1.286173e+00	1.308178e+00	1.315340e+00	1.325546e+00	1.309186e+00	1.295544e+00	1.295274e+00	1.337643e+00	1.322184e+00	1.335476e+00	1.312784e+00	1.326326e+00	1.343672e+00	1.331481e+00	1.322991e+00	1.162809e+00	7.602752e-01	1.310342e+00	1.312909e+00	1.271938e+00	1.348052e+00	1.328970e+00	1.177315e+00	1.296741e+00	1.324118e+00	1.267529e+00	1.288385e+00	1.238121e+00	1.387700e+00	1.400526e+00	1.342643e+00	1.333082e+00	1.333652e+00	1.317426e+00	1.120907e+00	1.261679e+00	1.252519e+00	1.204966e+00	1.387728e+00	1.376307e+00	1.379743e+00	1.216079e+00	1.047446e+00	1.309211e+00	1.260424e+00	1.265029e+00	1.295720e+00	1.338279e+00	1.280679e+00	1.214924e+00	1.223778e+00	1.225289e+00	1.325617e+00	1.567324e+00	1.593314e+00	1.344994e+00	1.344508e+00	1.235152e+00	1.289399e+00	1.297560e+00	1.297454e+00	1.301513e+00	1.310820e+00	1.305017e+00	1.332822e+00	8.299607e-01	1.031792e+00	1.320580e+00	1.304392e+00	1.352426e+00	1.402255e+00	1.385106e+00	1.339277e+00	1.243008e+00	1.026996e+00	1.156788e+00	1.021043e+00	1.287056e+00	1.294951e+00	1.304845e+00	1.319473e+00	1.315711e+00	1.332732e+00	1.200646e+00	1.240342e+00	1.320274e+00	1.007534e+00	1.043431e+00	1.208759e+00	1.251563e+00	1.311158e+00	1.309577e+00	1.318508e+00	1.303259e+00	1.359481e+00	1.419575e+00	1.424608e+00	1.443225e+00	1.349885e+00	1.219101e+00	1.205025e+00	1.133118e+00	1.162823e+00	7.161342e-01	9.213511e-01	1.194546e+00	1.214108e+00	1.160060e+00	1.163743e+00	1.113441e+00	1.342165e+00	1.355281e+00	1.361158e+00	1.350671e+00	1.292133e+00	1.300034e+00	1.347462e+00	5.974385e-01	5.715301e-01	1.247360e+00	1.162496e+00	1.336321e+00	1.297179e+00	1.348039e+00	1.361955e+00	1.277057e+00	1.176786e+00	7.272276e-01	1.209737e+00	1.214080e+00	1.363376e+00	1.182146e+00	1.352586e+00	1.338773e+00	8.685990e-01	1.403453e+00	1.276852e+00	1.293076e+00	1.307113e+00	1.039027e+00	1.268066e+00	1.255699e+00	1.195273e+00	1.182817e+00	1.129556e+00	1.170984e+00	1.611671e+00	1.394911e+00	1.426396e+00	1.307966e+00	1.391364e+00	1.308126e+00	1.316100e+00	1.345600e+00	1.094042e+00	1.173603e+00	1.002446e+00	1.218812e+00	1.421695e+00	1.417395e+00	1.375008e+00	1.211219e+00	1.228170e+00	1.238486e+00	1.238639e+00	1.364901e+00	1.366486e+00	1.405065e+00	1.406716e+00	1.313100e+00	1.324440e+00	1.324529e+00	1.277838e+00	1.318883e+00	1.307616e+00	1.300172e+00	1.302202e+00	1.277399e+00	9.085528e-01	1.024603e+00	1.352481e+00	1.369578e+00	8.331969e-01	1.372984e+00	1.389607e+00	1.386373e+00	1.309074e+00	7.679642e-01	6.966980e-01	7.442062e-01	7.431155e-01	1.403498e+00	1.467511e+00	1.472613e+00	1.494805e+00	1.231695e+00	1.108918e+00	1.028792e+00	1.055359e+00	1.297950e+00	1.302129e+00	1.303832e+00	1.302113e+00	1.307441e+00	1.272371e+00	1.261166e+00	1.210042e+00	1.225254e+00	1.208234e+00	1.379717e+00	1.366551e+00	1.367227e+00	1.442926e+00	1.451909e+00	1.294773e+00	1.267832e+00	1.341739e+00	1.304082e+00	1.358058e+00	1.396132e+00	1.295917e+00	1.303938e+00	1.263641e+00	1.315513e+00	6.998894e-01	6.676518e-01	9.471190e-01	8.612254e-01	1.216669e+00	7.339899e-01	1.080578e+00	1.293586e+00	1.285104e+00	1.304528e+00	1.175001e+00	1.310179e+00	1.282792e+00	1.273625e+00	1.278088e+00	1.249376e+00	1.223965e+00	1.414869e+00	1.411700e+00	1.374324e+00	1.386359e+00	1.296753e+00	9.473421e-01	1.196836e+00	1.326115e+00	1.334423e+00	1.124466e+00	9.870014e-01	9.575052e-01	6.559056e-01	1.179911e+00	1.087681e+00	1.223108e+00	1.177777e+00	1.160279e+00	1.198797e+00	1.165885e+00	1.114359e+00	1.187822e+00	6.204397e-01	6.973897e-01	1.208353e+00	1.220575e+00	1.237329e+00	1.450954e+00	1.450136e+00	1.452922e+00	1.435766e+00	1.347768e+00	1.326530e+00	1.352889e+00	1.365675e+00	1.301999e+00	1.287303e+00	1.182074e+00	1.142029e+00	1.140796e+00	1.186745e+00	1.234297e+00	1.245931e+00	1.240217e+00	1.106079e+00	1.209571e+00	1.202406e+00	1.236138e+00	1.401624e+00	1.393033e+00	1.285723e+00	1.305120e+00	6.727030e-01	6.239048e-01	1.338496e+00	1.340305e+00	1.397319e+00	1.400986e+00	1.148842e+00	1.210922e+00	1.219758e+00	1.490796e+00	1.484984e+00	1.509672e+00	1.432228e+00	1.426864e+00	1.135374e+00	1.075286e+00	1.365800e+00	1.403893e+00	1.359304e+00	6.384673e-01	6.335294e-01	1.296280e+00	1.286148e+00	1.293153e+00	1.052162e+00	1.089834e+00	1.354161e+00	1.306789e+00	1.309651e+00	1.300271e+00	8.521800e-01	1.096885e+00	1.307420e+00	1.312638e+00	1.310959e+00	1.297394e+00	1.384302e+00	1.397610e+00	1.401121e+00	1.404257e+00	9.149199e-01	1.118313e+00	7.630825e-01	1.287214e+00	1.273718e+00	1.269872e+00	1.261163e+00	1.424801e+00	1.355371e+00	1.340704e+00	1.366223e+00	1.449201e+00	1.106590e+00	9.260191e-01	1.552211e+00	1.517432e+00	1.540051e+00	1.068802e+00	1.102711e+00	1.127388e+00	1.224360e+00	1.235900e+00	7.863060e-01	7.347384e-01	8.588768e-01	1.301473e+00	1.313719e+00	1.376215e+00	8.259929e-01	7.254573e-01	1.370253e+00	1.360909e+00	1.388668e+00	1.377408e+00	1.394638e+00	1.386336e+00	1.401318e+00	1.407200e+00	9.712768e-01	1.230832e+00	1.234305e+00	1.262947e+00	1.227356e+00	1.212824e+00	1.263069e+00	1.159632e+00	5.899613e-01	1.333968e+00	1.362240e+00	1.342726e+00	1.355782e+00	1.504076e+00	1.517008e+00	1.403986e+00	1.384602e+00	1.381409e+00	1.374641e+00	1.262360e+00	1.264654e+00	9.991404e-01	1.051714e+00	8.911515e-01	1.412437e+00	1.449416e+00	1.236815e+00	1.249163e+00	1.268047e+00	1.284137e+00	1.260172e+00	1.267378e+00	1.410122e+00	1.400813e+00	1.414962e+00	8.222137e-01	7.921529e-01	8.017073e-01	8.669893e-01	7.659279e-01	7.743743e-01	1.350350e+00	1.338167e+00	1.317995e+00	1.408106e+00	1.411529e+00	1.277527e+00	1.289060e+00	7.094517e-01	8.023722e-01	1.143310e+00	1.219926e+00	1.265383e+00	7.791787e-01	8.356818e-01	8.010933e-01	1.042495