# vtk DataFile Version 3.0
vtk output
ASCII
DATASET UNSTRUCTURED_GRID
POINTS 198 double
0.000000e+00	0.000000e+00	0.0	3.408724e-03	3.657950e-03	0.0	7.098863e-03	7.267302e-03	0.0	1.163023e-02	1.016388e-02	0.0	1.642550e-02	1.298512e-02	0.0	2.168286e-02	1.537644e-02	0.0	2.717459e-02	1.773892e-02	0.0	3.298519e-02	1.987920e-02	0.0	3.901580e-02	2.204266e-02	0.0	4.529098e-02	2.417301e-02	0.0	5.176082e-02	2.642466e-02	0.0	5.842393e-02	2.881382e-02	0.0	6.521329e-02	3.151630e-02	0.0	7.216356e-02	3.445312e-02	0.0	7.920901e-02	3.775923e-02	0.0	8.645898e-02	4.119870e-02	0.0	9.411164e-02	4.433224e-02	0.0	1.020859e-01	4.727264e-02	0.0	1.105939e-01	4.937608e-02	0.0	1.194184e-01	5.106321e-02	0.0	1.286633e-01	5.167166e-02	0.0	1.381614e-01	5.217194e-02	0.0	1.479250e-01	5.187856e-02	0.0	1.579396e-01	5.157764e-02	0.0	1.682012e-01	5.118895e-02	0.0	1.787103e-01	5.076422e-02	0.0	1.894674e-01	5.046295e-02	0.0	2.004743e-01	5.056077e-02	0.0	2.117210e-01	5.066073e-02	0.0	2.231828e-01	5.127329e-02	0.0	2.348665e-01	5.211282e-02	0.0	2.467713e-01	5.301231e-02	0.0	2.588748e-01	5.416517e-02	0.0	2.711897e-01	5.533815e-02	0.0	2.837185e-01	5.641449e-02	0.0	2.964493e-01	5.743365e-02	0.0	3.093697e-01	5.842037e-02	0.0	3.224983e-01	5.888454e-02	0.0	3.357943e-01	5.935464e-02	0.0	3.492511e-01	5.947090e-02	0.0	3.628562e-01	5.931398e-02	0.0	3.765932e-01	5.911727e-02	0.0	3.904332e-01	5.837657e-02	0.0	4.043806e-01	5.763012e-02	0.0	4.184004e-01	5.658008e-02	0.0	4.324839e-01	5.529739e-02	0.0	4.466308e-01	5.398377e-02	0.0	4.607954e-01	5.234016e-02	0.0	4.749970e-01	5.069228e-02	0.0	4.892164e-01	4.900548e-02	0.0	5.034400e-01	4.729044e-02	0.0	5.176579e-01	4.559159e-02	0.0	5.318772e-01	4.410420e-02	0.0	5.460595e-01	4.262068e-02	0.0	5.602136e-01	4.140683e-02	0.0	5.743195e-01	4.039973e-02	0.0	5.883472e-01	3.943622e-02	0.0	6.023079e-01	3.900336e-02	0.0	6.161610e-01	3.857383e-02	0.0	6.298964e-01	3.850639e-02	0.0	6.435008e-01	3.871648e-02	0.0	6.569588e-01	3.895656e-02	0.0	6.702341e-01	3.983445e-02	0.0	6.833422e-01	4.070129e-02	0.0	6.962606e-01	4.171540e-02	0.0	7.089805e-01	4.286329e-02	0.0	7.215048e-01	4.399353e-02	0.0	7.338493e-01	4.479565e-02	0.0	7.459823e-01	4.557993e-02	0.0	7.579078e-01	4.582335e-02	0.0	7.696187e-01	4.556256e-02	0.0	7.810820e-01	4.511238e-02	0.0	7.922039e-01	4.343860e-02	0.0	8.030886e-01	4.180052e-02	0.0	8.135738e-01	3.939257e-02	0.0	8.237910e-01	3.689672e-02	0.0	8.337230e-01	3.429155e-02	0.0	8.433812e-01	3.162666e-02	0.0	8.528161e-01	2.910090e-02	0.0	8.620623e-01	2.684930e-02	0.0	8.710642e-01	2.465720e-02	0.0	8.798821e-01	2.279107e-02	0.0	8.884668e-01	2.102622e-02	0.0	8.968200e-01	1.937262e-02	0.0	9.049535e-01	1.787970e-02	0.0	9.128468e-01	1.643085e-02	0.0	9.205088e-01	1.505945e-02	0.0	9.279373e-01	1.373691e-02	0.0	9.351321e-01	1.244390e-02	0.0	9.420953e-01	1.117153e-02	0.0	9.488343e-01	9.939599e-03	0.0	9.553476e-01	8.717568e-03	0.0	9.616451e-01	7.536021e-03	0.0	9.677271e-01	6.372634e-03	0.0	9.736015e-01	5.245045e-03	0.0	9.792700e-01	4.137780e-03	0.0	9.847396e-01	3.062099e-03	0.0	9.900141e-01	2.011694e-03	0.0	9.950979e-01	9.842712e-04	0.0	1.000000e+00	0.000000e+00	0.0	9.950042e-01	2.030075e-04	0.0	9.898201e-01	3.959394e-04	0.0	9.844416e-01	5.404577e-04	0.0	9.788646e-01	6.412744e-04	0.0	9.730845e-01	7.181087e-04	0.0	9.670964e-01	7.377170e-04	0.0	9.608963e-01	7.347200e-04	0.0	9.544797e-01	6.669359e-04	0.0	9.478420e-01	5.831512e-04	0.0	9.409804e-01	4.046371e-04	0.0	9.338892e-01	2.201487e-04	0.0	9.265680e-01	-7.402187e-05	0.0	9.190106e-01	-4.014592e-04	0.0	9.112179e-01	-8.277900e-04	0.0	9.031905e-01	-1.416974e-03	0.0	8.949173e-01	-2.024202e-03	0.0	8.864334e-01	-3.029491e-03	0.0	8.777054e-01	-4.115577e-03	0.0	8.687696e-01	-5.498377e-03	0.0	8.596447e-01	-7.301727e-03	0.0	8.502730e-01	-9.165423e-03	0.0	8.408122e-01	-1.175980e-02	0.0	8.311066e-01	-1.442134e-02	0.0	8.211947e-01	-1.728283e-02	0.0	8.110584e-01	-2.027400e-02	0.0	8.006427e-01	-2.318920e-02	0.0	7.899250e-01	-2.593589e-02	0.0	7.789623e-01	-2.869871e-02	0.0	7.675963e-01	-3.072782e-02	0.0	7.559999e-01	-3.279804e-02	0.0	7.441158e-01	-3.448982e-02	0.0	7.319769e-01	-3.598132e-02	0.0	7.196210e-01	-3.746841e-02	0.0	7.070410e-01	-3.882308e-02	0.0	6.942631e-01	-4.019907e-02	0.0	6.813132e-01	-4.174117e-02	0.0	6.681939e-01	-4.338667e-02	0.0	6.549126e-01	-4.510017e-02	0.0	6.415303e-01	-4.723131e-02	0.0	6.280026e-01	-4.938561e-02	0.0	6.143769e-01	-5.176654e-02	0.0	6.006573e-01	-5.432246e-02	0.0	5.868324e-01	-5.690887e-02	0.0	5.729613e-01	-5.975626e-02	0.0	5.590103e-01	-6.262005e-02	0.0	5.450070e-01	-6.556150e-02	0.0	5.309651e-01	-6.857493e-02	0.0	5.168864e-01	-7.159627e-02	0.0	5.027526e-01	-7.446462e-02	0.0	4.886109e-01	-7.733223e-02	0.0	4.744327e-01	-7.995994e-02	0.0	4.602272e-01	-8.231408e-02	0.0	4.460588e-01	-8.466207e-02	0.0	4.318289e-01	-8.615672e-02	0.0	4.176621e-01	-8.761754e-02	0.0	4.035423e-01	-8.853917e-02	0.0	3.894821e-01	-8.889674e-02	0.0	3.755311e-01	-8.923922e-02	0.0	3.617197e-01	-8.846166e-02	0.0	3.480431e-01	-8.769169e-02	0.0	3.345737e-01	-8.632566e-02	0.0	3.213166e-01	-8.442998e-02	0.0	3.082287e-01	-8.255217e-02	0.0	2.955100e-01	-7.966693e-02	0.0	2.829766e-01	-7.682373e-02	0.0	2.707003e-01	-7.377466e-02	0.0	2.587052e-01	-7.045765e-02	0.0	2.469175e-01	-6.719797e-02	0.0	2.353573e-01	-6.394924e-02	0.0	2.240198e-01	-6.075222e-02	0.0	2.128854e-01	-5.770277e-02	0.0	2.018923e-01	-5.505678e-02	0.0	1.911355e-01	-5.246763e-02	0.0	1.805540e-01	-5.023447e-02	0.0	1.701711e-01	-4.826261e-02	0.0	1.600353e-01	-4.633766e-02	0.0	1.500970e-01	-4.475203e-02	0.0	1.404094e-01	-4.320706e-02	0.0	1.309696e-01	-4.172370e-02	0.0	1.217766e-01	-4.030745e-02	0.0	1.128344e-01	-3.892981e-02	0.0	1.041607e-01	-3.747306e-02	0.0	9.573645e-02	-3.604516e-02	0.0	8.756912e-02	-3.459481e-02	0.0	7.966034e-02	-3.309924e-02	0.0	7.199193e-02	-3.164467e-02	0.0	6.459215e-02	-3.007460e-02	0.0	5.742448e-02	-2.855378e-02	0.0	5.052175e-02	-2.692147e-02	0.0	4.385211e-02	-2.530008e-02	0.0	3.746900e-02	-2.348257e-02	0.0	3.131791e-02	-2.165435e-02	0.0	2.553415e-02	-1.942173e-02	0.0	2.004250e-02	-1.705523e-02	0.0	1.492176e-02	-1.437310e-02	0.0	1.026007e-02	-1.132583e-02	0.0	5.993405e-03	-8.071049e-03	0.0	2.309191e-03	-4.418841e-03	0.0	
CELLS 198	594
2	101	102	2	102	103	2	103	104	2	104	105	2	105	106	2	106	107	2	107	108	2	108	109	2	109	110	2	110	111	2	111	112	2	112	113	2	113	114	2	114	115	2	115	116	2	116	117	2	117	118	2	118	119	2	119	120	2	120	121	2	121	122	2	122	123	2	123	124	2	124	125	2	125	126	2	126	127	2	127	128	2	128	129	2	129	130	2	130	131	2	131	132	2	132	133	2	133	134	2	134	135	2	135	136	2	136	137	2	137	138	2	138	139	2	139	140	2	140	141	2	141	142	2	142	143	2	143	144	2	144	145	2	145	146	2	146	147	2	147	148	2	148	149	2	149	150	2	150	151	2	151	152	2	152	153	2	153	154	2	154	155	2	155	156	2	156	157	2	157	158	2	158	159	2	159	160	2	160	161	2	161	162	2	162	163	2	163	164	2	164	165	2	165	166	2	166	167	2	167	168	2	168	169	2	169	170	2	170	171	2	171	172	2	172	173	2	173	174	2	174	175	2	39	40	2	40	41	2	41	42	2	42	43	2	43	44	2	44	45	2	45	46	2	46	47	2	47	48	2	48	49	2	49	50	2	50	51	2	51	52	2	52	53	2	53	54	2	54	55	2	55	56	2	56	57	2	57	58	2	58	59	2	59	60	2	60	61	2	61	62	2	62	63	2	63	64	2	64	65	2	65	66	2	66	67	2	67	68	2	68	69	2	69	70	2	70	71	2	71	72	2	72	73	2	73	74	2	74	75	2	75	76	2	76	77	2	77	78	2	78	79	2	79	80	2	80	81	2	81	82	2	82	83	2	83	84	2	84	85	2	85	86	2	86	87	2	87	88	2	88	89	2	89	90	2	90	91	2	91	92	2	92	93	2	93	94	2	94	95	2	95	96	2	96	97	2	97	98	2	98	99	2	99	100	2	100	101	2	0	1	2	1	2	2	2	3	2	3	4	2	4	5	2	5	6	2	6	7	2	7	8	2	8	9	2	9	10	2	10	11	2	11	12	2	12	13	2	13	14	2	14	15	2	15	16	2	16	17	2	17	18	2	18	19	2	19	20	2	20	21	2	21	22	2	22	23	2	23	24	2	24	25	2	25	26	2	26	27	2	27	28	2	28	29	2	29	30	2	30	31	2	31	32	2	32	33	2	33	34	2	34	35	2	35	36	2	36	37	2	37	38	2	38	39	2	175	176	2	176	177	2	177	178	2	178	179	2	179	180	2	180	181	2	181	182	2	182	183	2	183	184	2	184	185	2	185	186	2	186	187	2	187	188	2	188	189	2	189	190	2	190	191	2	191	192	2	192	193	2	193	194	2	194	195	2	195	196	2	196	197	2	197	0	
CELL_TYPES 198
3	3	3	3	3	3	3	3	3	3	3	3	3	3	3	3	3	3	3	3	3	3	3	3	3	3	3	3	3	3	3	3	3	3	3	3	3	3	3	3	3	3	3	3	3	3	3	3	3	3	3	3	3	3	3	3	3	3	3	3	3	3	3	3	3	3	3	3	3	3	3	3	3	3	3	3	3	3	3	3	3	3	3	3	3	3	3	3	3	3	3	3	3	3	3	3	3	3	3	3	3	3	3	3	3	3	3	3	3	3	3	3	3	3	3	3	3	3	3	3	3	3	3	3	3	3	3	3	3	3	3	3	3	3	3	3	3	3	3	3	3	3	3	3	3	3	3	3	3	3	3	3	3	3	3	3	3	3	3	3	3	3	3	3	3	3	3	3	3	3	3	3	3	3	3	3	3	3	3	3	3	3	3	3	3	3	3	3	3	3	3	3	3	3	3	3	3	3	
POINT_DATA 198

SCALARS Density double 1
LOOKUP_TABLE default
1.507288e+00	1.180200e+00	1.192755e+00	1.148208e+00	1.147872e+00	1.146708e+00	1.169061e+00	1.187340e+00	1.215969e+00	1.234551e+00	1.253929e+00	1.266119e+00	1.263816e+00	1.245158e+00	1.202713e+00	1.110866e+00	1.011182e+00	8.962260e-01	7.861583e-01	6.862325e-01	6.118944e-01	5.598759e-01	5.221066e-01	5.231309e-01	5.319880e-01	5.482387e-01	5.840225e-01	6.186707e-01	6.589953e-01	7.203937e-01	7.552434e-01	7.828455e-01	8.122270e-01	8.207551e-01	8.184347e-01	8.162357e-01	7.895997e-01	7.680593e-01	7.612213e-01	7.401266e-01	7.358395e-01	7.183970e-01	6.953076e-01	6.863164e-01	6.861391e-01	7.998297e-01	1.085897e+00	1.198288e+00	1.202558e+00	1.202915e+00	1.215887e+00	1.232844e+00	1.241954e+00	1.251401e+00	1.262150e+00	1.263604e+00	1.272402e+00	1.274108e+00	1.269829e+00	1.273465e+00	1.263999e+00	1.262593e+00	1.250243e+00	1.223330e+00	1.204355e+00	1.174155e+00	1.126968e+00	1.085026e+00	1.033367e+00	9.634519e-01	9.118704e-01	8.297164e-01	7.911307e-01	8.543878e-01	1.003596e+00	1.131491e+00	1.168371e+00	1.199483e+00	1.231505e+00	1.244809e+00	1.256492e+00	1.266713e+00	1.266521e+00	1.271322e+00	1.273417e+00	1.273840e+00	1.276489e+00	1.278292e+00	1.280848e+00	1.285353e+00	1.289605e+00	1.294835e+00	1.300684e+00	1.306489e+00	1.313279e+00	1.320782e+00	1.330061e+00	1.339599e+00	1.365084e+00	1.341059e+00	1.424004e+00	1.396699e+00	1.398631e+00	1.401254e+00	1.402548e+00	1.403909e+00	1.405183e+00	1.407557e+00	1.408663e+00	1.410735e+00	1.413031e+00	1.414354e+00	1.419533e+00	1.418998e+00	1.425845e+00	1.427574e+00	1.425827e+00	1.431744e+00	1.423170e+00	1.425484e+00	1.418281e+00	1.398152e+00	1.384353e+00	1.360254e+00	1.334636e+00	1.315106e+00	1.279840e+00	1.264228e+00	1.262129e+00	1.254447e+00	1.266150e+00	1.272724e+00	1.280497e+00	1.294357e+00	1.302632e+00	1.305654e+00	1.315063e+00	1.314781e+00	1.309753e+00	1.308526e+00	1.299021e+00	1.294135e+00	1.285090e+00	1.271962e+00	1.261655e+00	1.246351e+00	1.225293e+00	1.213021e+00	1.202751e+00	1.135957e+00	9.208155e-01	7.471969e-01	7.264139e-01	7.526825e-01	7.694599e-01	8.111530e-01	8.295322e-01	8.787358e-01	9.276348e-01	9.510235e-01	1.001493e+00	1.024017e+00	1.075617e+00	1.144720e+00	1.176511e+00	1.221189e+00	1.262076e+00	1.289984e+00	1.319812e+00	1.349835e+00	1.365246e+00	1.377449e+00	1.391322e+00	1.390083e+00	1.395964e+00	1.397273e+00	1.390696e+00	1.390473e+00	1.388786e+00	1.384435e+00	1.383782e+00	1.386528e+00	1.386574e+00	1.392147e+00	1.393860e+00	1.398981e+00	1.404835e+00	1.410036e+00	1.415358e+00	1.424717e+00	1.430151e+00	1.442900e+00	1.471993e+00	1.496190e+00	1.539235e+00	1.578720e+00	1.604597e+00	1.685065e+00	
VECTORS Momentum double
3.824136e+01	2.167372e+02	0.0	1.822285e+02	1.781051e+02	0.0	2.144788e+02	1.695834e+02	0.0	2.429548e+02	1.489034e+02	0.0	2.625487e+02	1.357951e+02	0.0	2.706558e+02	1.194085e+02	0.0	2.748429e+02	1.093429e+02	0.0	2.743814e+02	9.950279e+01	0.0	2.734716e+02	9.543231e+01	0.0	2.696252e+02	9.251893e+01	0.0	2.669769e+02	9.417182e+01	0.0	2.643531e+02	1.000271e+02	0.0	2.648310e+02	1.086725e+02	0.0	2.680171e+02	1.195189e+02	0.0	2.771262e+02	1.315394e+02	0.0	2.885308e+02	1.278414e+02	0.0	2.992772e+02	1.167331e+02	0.0	3.020515e+02	9.340999e+01	0.0	2.980022e+02	6.633284e+01	0.0	2.837048e+02	3.752546e+01	0.0	2.673373e+02	1.673257e+01	0.0	2.539227e+02	2.877253e+00	0.0	2.419796e+02	-7.585011e+00	0.0	2.431975e+02	-9.622115e+00	0.0	2.468147e+02	-1.031685e+01	0.0	2.519394e+02	-9.492379e+00	0.0	2.626406e+02	-3.221715e+00	0.0	2.722233e+02	2.672919e+00	0.0	2.802162e+02	8.655613e+00	0.0	2.942459e+02	1.946284e+01	0.0	3.005829e+02	2.293668e+01	0.0	3.035890e+02	2.588179e+01	0.0	3.085480e+02	2.962994e+01	0.0	3.103666e+02	2.847231e+01	0.0	3.098837e+02	2.596664e+01	0.0	3.107523e+02	2.480696e+01	0.0	3.066397e+02	1.757499e+01	0.0	3.026569e+02	1.048875e+01	0.0	3.031766e+02	6.472388e+00	0.0	2.982801e+02	-5.329181e-01	0.0	2.988150e+02	-4.040516e+00	0.0	2.948708e+02	-9.758253e+00	0.0	2.891113e+02	-1.566911e+01	0.0	2.902348e+02	-1.828787e+01	0.0	2.826978e+02	-2.288037e+01	0.0	2.919433e+02	-2.781743e+01	0.0	2.923152e+02	-2.956322e+01	0.0	2.894390e+02	-3.286237e+01	0.0	2.885878e+02	-3.350402e+01	0.0	2.871743e+02	-3.435051e+01	0.0	2.838991e+02	-3.410397e+01	0.0	2.815450e+02	-3.152371e+01	0.0	2.794093e+02	-2.922452e+01	0.0	2.768740e+02	-2.637748e+01	0.0	2.762189e+02	-2.160619e+01	0.0	2.741846e+02	-1.927634e+01	0.0	2.730634e+02	-1.365027e+01	0.0	2.737679e+02	-8.413405e+00	0.0	2.732673e+02	-5.017332e+00	0.0	2.749939e+02	1.522092e+00	0.0	2.755746e+02	4.533684e+00	0.0	2.772544e+02	1.149027e+01	0.0	2.822992e+02	1.885304e+01	0.0	2.864199e+02	2.069764e+01	0.0	2.909891e+02	2.468344e+01	0.0	2.975962e+02	2.720239e+01	0.0	3.030940e+02	2.367160e+01	0.0	3.081163e+02	1.980344e+01	0.0	3.135870e+02	1.379990e+01	0.0	3.118526e+02	-9.098205e-02	0.0	3.139948e+02	-8.873197e+00	0.0	3.037740e+02	-2.736031e+01	0.0	2.912940e+02	-4.350642e+01	0.0	2.910011e+02	-5.572002e+01	0.0	2.823041e+02	-6.683548e+01	0.0	2.779217e+02	-6.987407e+01	0.0	2.728867e+02	-7.346008e+01	0.0	2.640618e+02	-7.179636e+01	0.0	2.593243e+02	-6.612967e+01	0.0	2.555392e+02	-6.218608e+01	0.0	2.523719e+02	-5.738710e+01	0.0	2.522915e+02	-5.234640e+01	0.0	2.514189e+02	-5.060664e+01	0.0	2.511732e+02	-4.801104e+01	0.0	2.514087e+02	-4.611992e+01	0.0	2.508681e+02	-4.547281e+01	0.0	2.502136e+02	-4.469366e+01	0.0	2.496797e+02	-4.466527e+01	0.0	2.483551e+02	-4.502620e+01	0.0	2.468628e+02	-4.512324e+01	0.0	2.451348e+02	-4.540457e+01	0.0	2.432076e+02	-4.565210e+01	0.0	2.409543e+02	-4.563002e+01	0.0	2.382189e+02	-4.563149e+01	0.0	2.352431e+02	-4.553139e+01	0.0	2.318431e+02	-4.541475e+01	0.0	2.273595e+02	-4.492653e+01	0.0	2.198383e+02	-4.404633e+01	0.0	2.146402e+02	-4.217888e+01	0.0	1.878509e+02	-1.382262e+01	0.0	2.492832e+02	-1.176760e+01	0.0	2.388491e+02	-7.504307e+00	0.0	2.382512e+02	-5.259144e+00	0.0	2.382395e+02	-3.695537e+00	0.0	2.374869e+02	-1.985387e+00	0.0	2.366528e+02	-3.224218e-01	0.0	2.358996e+02	1.328078e+00	0.0	2.349775e+02	2.703574e+00	0.0	2.339043e+02	4.551366e+00	0.0	2.329587e+02	6.060800e+00	0.0	2.316448e+02	7.686714e+00	0.0	2.303323e+02	9.668513e+00	0.0	2.286580e+02	1.118270e+01	0.0	2.267717e+02	1.464477e+01	0.0	2.253258e+02	1.650401e+01	0.0	2.225517e+02	2.147007e+01	0.0	2.219981e+02	2.706576e+01	0.0	2.214117e+02	3.076149e+01	0.0	2.208668e+02	3.905412e+01	0.0	2.232297e+02	4.403562e+01	0.0	2.238868e+02	5.288873e+01	0.0	2.291547e+02	6.279153e+01	0.0	2.377855e+02	6.680971e+01	0.0	2.452157e+02	7.162995e+01	0.0	2.552596e+02	7.326634e+01	0.0	2.648762e+02	7.094809e+01	0.0	2.718775e+02	6.933330e+01	0.0	2.819871e+02	6.033909e+01	0.0	2.860157e+02	5.103384e+01	0.0	2.862785e+02	4.605170e+01	0.0	2.875718e+02	3.800123e+01	0.0	2.846214e+02	3.469392e+01	0.0	2.825458e+02	3.231457e+01	0.0	2.799935e+02	3.015238e+01	0.0	2.764572e+02	3.136232e+01	0.0	2.744727e+02	3.361631e+01	0.0	2.731872e+02	3.464918e+01	0.0	2.706369e+02	3.908119e+01	0.0	2.706826e+02	4.314877e+01	0.0	2.719305e+02	4.534531e+01	0.0	2.725250e+02	4.924849e+01	0.0	2.749206e+02	5.130821e+01	0.0	2.764356e+02	5.428984e+01	0.0	2.789712e+02	5.732701e+01	0.0	2.820700e+02	5.850144e+01	0.0	2.845964e+02	6.045166e+01	0.0	2.874465e+02	6.183520e+01	0.0	2.898498e+02	6.070291e+01	0.0	2.912709e+02	5.918077e+01	0.0	2.919905e+02	5.472111e+01	0.0	2.971428e+02	5.137725e+01	0.0	2.921884e+02	4.623159e+01	0.0	2.961268e+02	4.058633e+01	0.0	3.040197e+02	3.161437e+01	0.0	3.048564e+02	2.572766e+01	0.0	3.144590e+02	1.433157e+01	0.0	3.158153e+02	7.915017e+00	0.0	3.237794e+02	-6.045388e+00	0.0	3.279750e+02	-1.867137e+01	0.0	3.275497e+02	-2.563603e+01	0.0	3.315856e+02	-4.071541e+01	0.0	3.286686e+02	-4.681697e+01	0.0	3.286023e+02	-6.125092e+01	0.0	3.245372e+02	-7.414064e+01	0.0	3.167773e+02	-7.518162e+01	0.0	3.116726e+02	-8.208035e+01	0.0	3.045479e+02	-8.444538e+01	0.0	2.976589e+02	-8.295697e+01	0.0	2.914510e+02	-8.209536e+01	0.0	2.846039e+02	-7.925700e+01	0.0	2.799842e+02	-7.207489e+01	0.0	2.776793e+02	-6.693699e+01	0.0	2.751825e+02	-6.233618e+01	0.0	2.742607e+02	-5.488798e+01	0.0	2.747714e+02	-5.222438e+01	0.0	2.741696e+02	-4.791465e+01	0.0	2.752308e+02	-4.380179e+01	0.0	2.769265e+02	-4.389848e+01	0.0	2.770865e+02	-4.312868e+01	0.0	2.779804e+02	-4.281238e+01	0.0	2.782563e+02	-4.480437e+01	0.0	2.772730e+02	-4.683908e+01	0.0	2.758960e+02	-4.780973e+01	0.0	2.745300e+02	-5.032082e+01	0.0	2.721564e+02	-5.148589e+01	0.0	2.698755e+02	-5.416894e+01	0.0	2.665235e+02	-5.654868e+01	0.0	2.629493e+02	-5.891011e+01	0.0	2.592337e+02	-6.209641e+01	0.0	2.535200e+02	-6.681711e+01	0.0	2.467810e+02	-7.168117e+01	0.0	2.378543e+02	-8.053726e+01	0.0	2.202151e+02	-8.967703e+01	0.0	1.960115e+02	-9.323097e+01	0.0	1.620183e+02	-9.537393e+01	0.0	1.181887e+02	-8.271552e+01	0.0	6.252214e+01	-5.252410e+01	0.0	-1.169870e+01	1.766442e+01	0.0	
SCALARS Energy double 1
LOOKUP_TABLE default
3.314623e+05	2.637984e+05	2.676159e+05	2.591039e+05	2.598021e+05	2.595783e+05	2.642151e+05	2.677368e+05	2.735521e+05	2.771285e+05	2.810586e+05	2.835853e+05	2.833348e+05	2.799063e+05	2.719985e+05	2.537109e+05	2.338647e+05	2.102898e+05	1.874237e+05	1.658658e+05	1.494469e+05	1.378690e+05	1.292616e+05	1.296232e+05	1.317544e+05	1.354545e+05	1.435272e+05	1.512787e+05	1.599483e+05	1.734695e+05	1.809722e+05	1.867096e+05	1.930390e+05	1.948970e+05	1.943656e+05	1.940183e+05	1.883009e+05	1.836200e+05	1.823366e+05	1.776774e+05	1.769129e+05	1.731013e+05	1.680087e+05	1.664385e+05	1.655449e+05	1.888129e+05	2.468448e+05	2.699779e+05	2.708146e+05	2.707992e+05	2.732845e+05	2.766558e+05	2.784093e+05	2.802105e+05	2.823993e+05	2.825672e+05	2.843264e+05	2.847154e+05	2.837800e+05	2.846480e+05	2.826970e+05	2.825194e+05	2.802753e+05	2.749222e+05	2.712934e+05	2.654934e+05	2.561114e+05	2.478507e+05	2.377176e+05	2.233551e+05	2.132072e+05	1.959500e+05	1.872290e+05	1.999614e+05	2.296208e+05	2.557444e+05	2.631387e+05	2.690393e+05	2.753735e+05	2.778881e+05	2.800997e+05	2.821877e+05	2.820774e+05	2.830479e+05	2.834836e+05	2.835358e+05	2.840504e+05	2.844012e+05	2.848712e+05	2.857421e+05	2.865498e+05	2.875547e+05	2.886728e+05	2.897590e+05	2.910439e+05	2.924626e+05	2.942070e+05	2.958672e+05	3.010405e+05	2.946024e+05	3.150587e+05	3.087300e+05	3.091089e+05	3.096649e+05	3.099026e+05	3.101515e+05	3.103868e+05	3.108485e+05	3.110343e+05	3.114323e+05	3.118619e+05	3.120859e+05	3.131154e+05	3.129238e+05	3.143240e+05	3.145874e+05	3.142170e+05	3.154749e+05	3.136795e+05	3.143198e+05	3.129002e+05	3.089725e+05	3.065073e+05	3.018397e+05	2.969790e+05	2.933628e+05	2.863343e+05	2.835582e+05	2.832603e+05	2.816151e+05	2.840717e+05	2.852320e+05	2.867123e+05	2.894481e+05	2.909793e+05	2.915115e+05	2.934233e+05	2.932487e+05	2.922287e+05	2.920654e+05	2.901410e+05	2.892809e+05	2.875080e+05	2.849485e+05	2.830000e+05	2.799873e+05	2.757970e+05	2.733848e+05	2.713223e+05	2.574431e+05	2.137963e+05	1.787690e+05	1.751000e+05	1.809596e+05	1.842432e+05	1.933586e+05	1.970803e+05	2.076121e+05	2.177868e+05	2.224547e+05	2.331045e+05	2.374448e+05	2.480986e+05	2.620749e+05	2.680100e+05	2.769797e+05	2.850004e+05	2.903210e+05	2.961392e+05	3.019635e+05	3.048145e+05	3.071760e+05	3.098974e+05	3.094943e+05	3.107351e+05	3.109336e+05	3.095659e+05	3.096160e+05	3.092622e+05	3.083923e+05	3.082885e+05	3.088307e+05	3.087713e+05	3.098958e+05	3.101366e+05	3.111211e+05	3.122023e+05	3.131382e+05	3.141077e+05	3.158575e+05	3.167403e+05	3.191519e+05	3.247045e+05	3.289631e+05	3.370802e+05	3.442455e+05	3.485677e+05	3.654626e+05	
SCALARS Pressure double 1
LOOKUP_TABLE default
1.261578e+05	9.451635e+04	9.451072e+04	8.949790e+04	8.869751e+04	8.856798e+04	9.071771e+04	9.274570e+04	9.562214e+04	9.768752e+04	9.964043e+04	1.008148e+05	1.003660e+05	9.813006e+04	9.315119e+04	8.355356e+04	7.313541e+04	6.180893e+04	5.125789e+04	4.247785e+04	3.632728e+04	3.211214e+04	2.925263e+04	2.920196e+04	2.975989e+04	3.099353e+04	3.378494e+04	3.655281e+04	4.012602e+04	4.524561e+04	4.832349e+04	5.096623e+04	5.355723e+04	5.428838e+04	5.411525e+04	5.379499e+04	5.142553e+04	4.956671e+04	4.877401e+04	4.702877e+04	4.649171e+04	4.500767e+04	4.309018e+04	4.193060e+04	4.277037e+04	5.401941e+04	8.283914e+04	9.382847e+04	9.428819e+04	9.441194e+04	9.586488e+04	9.764181e+04	9.865413e+04	9.972126e+04	1.007957e+05	1.010692e+05	1.019811e+05	1.021101e+05	1.017466e+05	1.019823e+05	1.010595e+05	1.008103e+05	9.930490e+04	9.648685e+04	9.435477e+04	9.098583e+04	8.604190e+04	8.156877e+04	7.601787e+04	6.915378e+04	6.364130e+04	5.595612e+04	5.296223e+04	5.943502e+04	7.507610e+04	8.778191e+04	9.158457e+04	9.512976e+04	9.851772e+04	1.000423e+05	1.013777e+05	1.023927e+05	1.024446e+05	1.029318e+05	1.031323e+05	1.032086e+05	1.034980e+05	1.036947e+05	1.040008e+05	1.044976e+05	1.049809e+05	1.055637e+05	1.062215e+05	1.068977e+05	1.076742e+05	1.085334e+05	1.096064e+05	1.108418e+05	1.134057e+05	1.125498e+05	1.172762e+05	1.153149e+05	1.155226e+05	1.157630e+05	1.159180e+05	1.160822e+05	1.162340e+05	1.164930e+05	1.166430e+05	1.168739e+05	1.171415e+05	1.173191e+05	1.178621e+05	1.178912e+05	1.185697e+05	1.188314e+05	1.186711e+05	1.192097e+05	1.184020e+05	1.184643e+05	1.176972e+05	1.155134e+05	1.137893e+05	1.111404e+05	1.082231e+05	1.059099e+05	1.022315e+05	1.002678e+05	9.992841e+04	9.924153e+04	1.003377e+05	1.011736e+05	1.020529e+05	1.035252e+05	1.045062e+05	1.048917e+05	1.058365e+05	1.059255e+05	1.054190e+05	1.052097e+05	1.042482e+05	1.036249e+05	1.026517e+05	1.012256e+05	1.000449e+05	9.841133e+04	9.620803e+04	9.489454e+04	9.383910e+04	8.743917e+04	6.576790e+04	4.808370e+04	4.544291e+04	4.755864e+04	4.936871e+04	5.291157e+04	5.476989e+04	5.917653e+04	6.384777e+04	6.628085e+04	7.095374e+04	7.345195e+04	7.846416e+04	8.546778e+04	8.918460e+04	9.377943e+04	9.817219e+04	1.013247e+05	1.045623e+05	1.078533e+05	1.096810e+05	1.110244e+05	1.125150e+05	1.125420e+05	1.130865e+05	1.132855e+05	1.126563e+05	1.125387e+05	1.123803e+05	1.119290e+05	1.118347e+05	1.121262e+05	1.121994e+05	1.127671e+05	1.130464e+05	1.136167e+05	1.143128e+05	1.149559e+05	1.156021e+05	1.166938e+05	1.174609e+05	1.189199e+05	1.222001e+05	1.252876e+05	1.302394e+05	1.350618e+05	1.385960e+05	1.461318e+05	
SCALARS Temperature double 1
LOOKUP_TABLE default
2.915737e+02	2.789855e+02	2.760324e+02	2.715330e+02	2.691835e+02	2.690632e+02	2.703244e+02	2.721127e+02	2.739469e+02	2.756514e+02	2.768172e+02	2.773831e+02	2.766517e+02	2.745414e+02	2.698092e+02	2.620196e+02	2.519582e+02	2.402503e+02	2.271334e+02	2.156362e+02	2.068172e+02	1.998057e+02	1.951804e+02	1.944608e+02	1.948767e+02	1.969390e+02	2.015227e+02	2.058219e+02	2.121163e+02	2.187948e+02	2.228957e+02	2.267967e+02	2.297053e+02	2.304219e+02	2.303382e+02	2.295919e+02	2.268831e+02	2.248152e+02	2.232070e+02	2.213543e+02	2.201014e+02	2.182491e+02	2.158896e+02	2.128321e+02	2.171507e+02	2.352787e+02	2.657524e+02	2.727745e+02	2.731376e+02	2.734150e+02	2.746608e+02	2.759041e+02	2.767198e+02	2.776013e+02	2.782029e+02	2.786367e+02	2.792068e+02	2.791856e+02	2.791290e+02	2.789769e+02	2.785228e+02	2.781454e+02	2.766983e+02	2.747609e+02	2.729228e+02	2.699472e+02	2.659675e+02	2.618870e+02	2.562662e+02	2.500439e+02	2.431287e+02	2.349353e+02	2.332107e+02	2.423359e+02	2.605992e+02	2.702616e+02	2.730687e+02	2.762821e+02	2.786817e+02	2.799698e+02	2.810690e+02	2.815925e+02	2.817781e+02	2.820488e+02	2.821333e+02	2.822481e+02	2.824524e+02	2.825901e+02	2.828585e+02	2.832137e+02	2.835854e+02	2.840079e+02	2.844926e+02	2.850315e+02	2.856176e+02	2.862614e+02	2.870744e+02	2.882432e+02	2.894050e+02	2.923662e+02	2.868990e+02	2.876158e+02	2.877359e+02	2.877949e+02	2.879144e+02	2.880429e+02	2.881579e+02	2.883128e+02	2.884574e+02	2.886041e+02	2.887948e+02	2.889621e+02	2.892404e+02	2.894208e+02	2.896890e+02	2.899766e+02	2.899404e+02	2.900526e+02	2.898230e+02	2.895047e+02	2.890906e+02	2.878117e+02	2.863420e+02	2.846309e+02	2.824800e+02	2.805473e+02	2.782655e+02	2.762908e+02	2.758135e+02	2.755950e+02	2.760639e+02	2.769256e+02	2.776370e+02	2.786265e+02	2.794801e+02	2.798615e+02	2.803621e+02	2.806579e+02	2.803881e+02	2.800939e+02	2.795651e+02	2.789428e+02	2.782678e+02	2.772342e+02	2.762388e+02	2.750647e+02	2.735280e+02	2.725230e+02	2.717930e+02	2.681480e+02	2.488122e+02	2.241781e+02	2.179277e+02	2.201141e+02	2.235096e+02	2.272366e+02	2.300059e+02	2.345965e+02	2.397723e+02	2.427880e+02	2.468072e+02	2.498771e+02	2.541230e+02	2.600960e+02	2.640732e+02	2.675193e+02	2.709776e+02	2.736285e+02	2.759900e+02	2.783447e+02	2.798665e+02	2.807846e+02	2.817170e+02	2.820358e+02	2.822065e+02	2.824381e+02	2.821979e+02	2.819483e+02	2.818936e+02	2.816440e+02	2.815394e+02	2.817142e+02	2.818890e+02	2.821810e+02	2.825321e+02	2.829180e+02	2.834652e+02	2.840085e+02	2.845311e+02	2.853313e+02	2.861156e+02	2.871102e+02	2.891986e+02	2.917103e+02	2.947594e+02	2.980286e+02	3.008951e+02	3.021052e+02	
SCALARS Mach double 1
LOOKUP_TABLE default
4.265513e-01	6.447968e-01	6.882615e-01	7.512687e-01	7.829247e-01	7.845261e-01	7.676471e-01	7.433366e-01	7.178954e-01	6.937349e-01	6.768930e-01	6.686168e-01	6.793011e-01	7.095279e-01	7.745673e-01	8.754637e-01	9.983515e-01	1.135314e+00	1.285349e+00	1.416615e+00	1.518413e+00	1.600607e+00	1.655640e+00	1.664269e+00	1.659279e+00	1.634631e+00	1.580353e+00	1.530002e+00	1.457076e+00	1.380452e+00	1.333639e+00	1.289185e+00	1.256042e+00	1.247873e+00	1.248827e+00	1.257335e+00	1.288201e+00	1.311761e+00	1.330090e+00	1.351220e+00	1.365522e+00	1.386692e+00	1.413710e+00	1.448832e+00	1.399261e+00	1.192404e+00	8.279135e-01	7.342203e-01	7.291879e-01	7.253299e-01	7.078395e-01	6.901081e-01	6.783114e-01	6.654079e-01	6.565040e-01	6.500321e-01	6.414597e-01	6.417796e-01	6.426347e-01	6.449260e-01	6.517364e-01	6.573593e-01	6.786242e-01	7.064223e-01	7.321675e-01	7.727173e-01	8.251311e-01	8.771294e-01	9.465183e-01	1.021086e+00	1.102036e+00	1.196334e+00	1.216049e+00	1.111222e+00	8.932339e-01	7.684930e-01	7.301443e-01	6.846576e-01	6.493587e-01	6.298590e-01	6.128769e-01	6.046688e-01	6.017379e-01	5.974468e-01	5.961024e-01	5.942729e-01	5.910069e-01	5.887974e-01	5.844732e-01	5.787136e-01	5.726407e-01	5.656766e-01	5.576086e-01	5.485295e-01	5.385234e-01	5.273625e-01	5.129946e-01	4.917526e-01	4.698697e-01	4.097562e-01	5.161212e-01	5.032453e-01	5.010625e-01	4.999871e-01	4.978019e-01	4.954454e-01	4.933293e-01	4.904652e-01	4.877795e-01	4.850431e-01	4.814668e-01	4.783104e-01	4.730219e-01	4.695664e-01	4.643930e-01	4.587895e-01	4.594977e-01	4.572983e-01	4.617893e-01	4.679536e-01	4.758741e-01	4.996807e-01	5.259520e-01	5.552887e-01	5.905646e-01	6.209781e-01	6.555725e-01	6.845314e-01	6.914092e-01	6.945434e-01	6.878073e-01	6.753137e-01	6.648825e-01	6.501861e-01	6.373218e-01	6.315149e-01	6.238361e-01	6.192666e-01	6.234350e-01	6.279580e-01	6.360306e-01	6.454402e-01	6.555384e-01	6.708021e-01	6.852835e-01	7.021104e-01	7.237534e-01	7.376926e-01	7.477174e-01	7.966480e-01	1.035630e+00	1.319021e+00	1.390368e+00	1.365377e+00	1.326641e+00	1.284174e+00	1.252616e+00	1.200209e+00	1.140822e+00	1.105986e+00	1.059180e+00	1.023059e+00	9.724308e-01	8.994907e-01	8.494666e-01	8.049157e-01	7.588209e-01	7.223511e-01	6.888708e-01	6.543934e-01	6.314392e-01	6.173022e-01	6.027039e-01	5.976534e-01	5.949372e-01	5.912355e-01	5.950731e-01	5.990423e-01	5.999109e-01	6.038557e-01	6.055041e-01	6.027477e-01	5.999837e-01	5.953438e-01	5.897286e-01	5.835112e-01	5.746097e-01	5.656680e-01	5.569636e-01	5.434290e-01	5.299061e-01	5.123546e-01	4.738188e-01	4.236984e-01	3.548814e-01	2.640326e-01	1.463420e-01	3.608493e-02	
SCALARS Pressure_Coefficient double 1
LOOKUP_TABLE default