# vtk DataFile Version 3.0
vtk output
ASCII
DATASET UNSTRUCTURED_GRID
POINTS 1835 double
1.000000e+02	0.000000e+00	0.0	9.917900e+01	1.278772e+01	0.0	9.672949e+01	2.536546e+01	0.0	9.269168e+01	3.752670e+01	0.0	8.713187e+01	4.907176e+01	0.0	8.014136e+01	5.981105e+01	0.0	7.183494e+01	6.956826e+01	0.0	6.234898e+01	7.818315e+01	0.0	5.183926e+01	8.551428e+01	0.0	4.047833e+01	9.144126e+01	0.0	2.845276e+01	9.586679e+01	0.0	1.595999e+01	9.871818e+01	0.0	3.205158e+00	9.994862e+01	0.0	-9.602303e+00	9.953791e+01	0.0	-2.225209e+01	9.749279e+01	0.0	-3.453651e+01	9.384684e+01	0.0	-4.625383e+01	8.865993e+01	0.0	-5.721167e+01	8.201723e+01	0.0	-6.723009e+01	7.402780e+01	0.0	-7.614460e+01	6.482284e+01	0.0	-8.380881e+01	5.455349e+01	0.0	-9.009689e+01	4.338837e+01	0.0	-9.490557e+01	3.151082e+01	0.0	-9.815592e+01	1.911586e+01	0.0	-9.979454e+01	6.407022e+00	0.0	-9.979454e+01	-6.407022e+00	0.0	-9.815592e+01	-1.911586e+01	0.0	-9.490557e+01	-3.151082e+01	0.0	-9.009689e+01	-4.338837e+01	0.0	-8.380881e+01	-5.455349e+01	0.0	-7.614460e+01	-6.482284e+01	0.0	-6.723009e+01	-7.402780e+01	0.0	-5.721167e+01	-8.201723e+01	0.0	-4.625383e+01	-8.865993e+01	0.0	-3.453651e+01	-9.384684e+01	0.0	-2.225209e+01	-9.749279e+01	0.0	-9.602303e+00	-9.953791e+01	0.0	3.205158e+00	-9.994862e+01	0.0	1.595999e+01	-9.871818e+01	0.0	2.845276e+01	-9.586679e+01	0.0	4.047833e+01	-9.144126e+01	0.0	5.183926e+01	-8.551428e+01	0.0	6.234898e+01	-7.818315e+01	0.0	7.183494e+01	-6.956826e+01	0.0	8.014136e+01	-5.981105e+01	0.0	8.713187e+01	-4.907176e+01	0.0	9.269168e+01	-3.752670e+01	0.0	9.672949e+01	-2.536546e+01	0.0	9.917900e+01	-1.278772e+01	0.0	0.000000e+00	0.000000e+00	0.0	3.434515e-03	3.633745e-03	0.0	7.157146e-03	7.210672e-03	0.0	1.168667e-02	1.011204e-02	0.0	1.647918e-02	1.294328e-02	0.0	2.171367e-02	1.538943e-02	0.0	2.717923e-02	1.782045e-02	0.0	3.295367e-02	2.006622e-02	0.0	3.896627e-02	2.228715e-02	0.0	4.526630e-02	2.435898e-02	0.0	5.184095e-02	2.628926e-02	0.0	5.871309e-02	2.801361e-02	0.0	6.590243e-02	2.933938e-02	0.0	7.336971e-02	3.047826e-02	0.0	8.115171e-02	3.089629e-02	0.0	8.918025e-02	3.118660e-02	0.0	9.746079e-02	3.126239e-02	0.0	1.059879e-01	3.140295e-02	0.0	1.147641e-01	3.157620e-02	0.0	1.237800e-01	3.203876e-02	0.0	1.330444e-01	3.259363e-02	0.0	1.425472e-01	3.334594e-02	0.0	1.522925e-01	3.424342e-02	0.0	1.622856e-01	3.519857e-02	0.0	1.725129e-01	3.633486e-02	0.0	1.829885e-01	3.749872e-02	0.0	1.937013e-01	3.876594e-02	0.0	2.046522e-01	4.010410e-02	0.0	2.158414e-01	4.148019e-02	0.0	2.272506e-01	4.300493e-02	0.0	2.388899e-01	4.456042e-02	0.0	2.507370e-01	4.626390e-02	0.0	2.627847e-01	4.812154e-02	0.0	2.750433e-01	5.001172e-02	0.0	2.874499e-01	5.226223e-02	0.0	3.000461e-01	5.457635e-02	0.0	3.128004e-01	5.706120e-02	0.0	3.256799e-01	5.983318e-02	0.0	3.387242e-01	6.264063e-02	0.0	3.519170e-01	6.550728e-02	0.0	3.652509e-01	6.841223e-02	0.0	3.787354e-01	7.124755e-02	0.0	3.924072e-01	7.376745e-02	0.0	4.061854e-01	7.630698e-02	0.0	4.201525e-01	7.822895e-02	0.0	4.342419e-01	7.988136e-02	0.0	4.484138e-01	8.133612e-02	0.0	4.627052e-01	8.195063e-02	0.0	4.770340e-01	8.256675e-02	0.0	4.913936e-01	8.258988e-02	0.0	5.057640e-01	8.237759e-02	0.0	5.201219e-01	8.202362e-02	0.0	5.344414e-01	8.122057e-02	0.0	5.487235e-01	8.041960e-02	0.0	5.629285e-01	7.927262e-02	0.0	5.770589e-01	7.801951e-02	0.0	5.910903e-01	7.660669e-02	0.0	6.049757e-01	7.474026e-02	0.0	6.187539e-01	7.288827e-02	0.0	6.323061e-01	7.041730e-02	0.0	6.456915e-01	6.775978e-02	0.0	6.588867e-01	6.493391e-02	0.0	6.717391e-01	6.134908e-02	0.0	6.844292e-01	5.780954e-02	0.0	6.968389e-01	5.396424e-02	0.0	7.089927e-01	4.992666e-02	0.0	7.209591e-01	4.595137e-02	0.0	7.327457e-01	4.208816e-02	0.0	7.443303e-01	3.829442e-02	0.0	7.557834e-01	3.483859e-02	0.0	7.671683e-01	3.196129e-02	0.0	7.783281e-01	2.914089e-02	0.0	7.894777e-01	2.752693e-02	0.0	8.004161e-01	2.609053e-02	0.0	8.111596e-01	2.522205e-02	0.0	8.216880e-01	2.472673e-02	0.0	8.319697e-01	2.431608e-02	0.0	8.420046e-01	2.403185e-02	0.0	8.517838e-01	2.369059e-02	0.0	8.612904e-01	2.297195e-02	0.0	8.705451e-01	2.227237e-02	0.0	8.795120e-01	2.123321e-02	0.0	8.882201e-01	2.012814e-02	0.0	8.966676e-01	1.896401e-02	0.0	9.048438e-01	1.765140e-02	0.0	9.127779e-01	1.637765e-02	0.0	9.204559e-01	1.504315e-02	0.0	9.278944e-01	1.372846e-02	0.0	9.350979e-01	1.244127e-02	0.0	9.420682e-01	1.117085e-02	0.0	9.488136e-01	9.941031e-03	0.0	9.553327e-01	8.722816e-03	0.0	9.616353e-01	7.545068e-03	0.0	9.677217e-01	6.386173e-03	0.0	9.735998e-01	5.263112e-03	0.0	9.792714e-01	4.159967e-03	0.0	9.847434e-01	3.087928e-03	0.0	9.900195e-01	2.040197e-03	0.0	9.951036e-01	1.012249e-03	0.0	1.000000e+00	0.000000e+00	0.0	9.950041e-01	2.004186e-04	0.0	9.898204e-01	3.934301e-04	0.0	9.844427e-01	5.390740e-04	0.0	9.788669e-01	6.418372e-04	0.0	9.730885e-01	7.210754e-04	0.0	9.671026e-01	7.437002e-04	0.0	9.609052e-01	7.437287e-04	0.0	9.544917e-01	6.783806e-04	0.0	9.478577e-01	5.970896e-04	0.0	9.410005e-01	4.190895e-04	0.0	9.339143e-01	2.351451e-04	0.0	9.265990e-01	-6.184635e-05	0.0	9.190482e-01	-3.935443e-04	0.0	9.112638e-01	-8.363017e-04	0.0	9.032475e-01	-1.466717e-03	0.0	8.949862e-01	-2.116397e-03	0.0	8.865276e-01	-3.241305e-03	0.0	8.778284e-01	-4.465709e-03	0.0	8.689380e-01	-6.037260e-03	0.0	8.598879e-01	-8.131569e-03	0.0	8.505910e-01	-1.028299e-02	0.0	8.412772e-01	-1.331646e-02	0.0	8.317270e-01	-1.644335e-02	0.0	8.219900e-01	-1.980305e-02	0.0	8.120486e-01	-2.333886e-02	0.0	8.018347e-01	-2.684223e-02	0.0	7.912875e-01	-3.012136e-02	0.0	7.805094e-01	-3.347231e-02	0.0	7.692665e-01	-3.598979e-02	0.0	7.577736e-01	-3.847128e-02	0.0	7.459712e-01	-4.048784e-02	0.0	7.338596e-01	-4.200532e-02	0.0	7.215348e-01	-4.354015e-02	0.0	7.089267e-01	-4.422996e-02	0.0	6.961208e-01	-4.493060e-02	0.0	6.831163e-01	-4.526866e-02	0.0	6.699226e-01	-4.523441e-02	0.0	6.565599e-01	-4.519972e-02	0.0	6.430502e-01	-4.465129e-02	0.0	6.293944e-01	-4.408764e-02	0.0	6.156062e-01	-4.347322e-02	0.0	6.016986e-01	-4.280331e-02	0.0	5.876825e-01	-4.212817e-02	0.0	5.735593e-01	-4.178732e-02	0.0	5.593547e-01	-4.145133e-02	0.0	5.450836e-01	-4.145980e-02	0.0	5.307605e-01	-4.181927e-02	0.0	5.164004e-01	-4.219073e-02	0.0	5.020418e-01	-4.310482e-02	0.0	4.876756e-01	-4.401938e-02	0.0	4.733267e-01	-4.506706e-02	0.0	4.590083e-01	-4.622558e-02	0.0	4.447271e-01	-4.737824e-02	0.0	4.304947e-01	-4.848423e-02	0.0	4.163289e-01	-4.958504e-02	0.0	4.022411e-01	-5.064228e-02	0.0	3.882461e-01	-5.166565e-02	0.0	3.743610e-01	-5.270054e-02	0.0	3.606122e-01	-5.390955e-02	0.0	3.469972e-01	-5.510678e-02	0.0	3.335591e-01	-5.658190e-02	0.0	3.202987e-01	-5.823288e-02	0.0	3.072125e-01	-5.990684e-02	0.0	2.943727e-01	-6.203082e-02	0.0	2.817196e-01	-6.412394e-02	0.0	2.692414e-01	-6.605229e-02	0.0	2.569502e-01	-6.783917e-02	0.0	2.448708e-01	-6.959361e-02	0.0	2.328967e-01	-7.010706e-02	0.0	2.211498e-01	-7.061077e-02	0.0	2.096879e-01	-7.008373e-02	0.0	1.985196e-01	-6.844997e-02	0.0	1.875908e-01	-6.685123e-02	0.0	1.772830e-01	-6.366648e-02	0.0	1.672445e-01	-6.041661e-02	0.0	1.575126e-01	-5.705646e-02	0.0	1.482068e-01	-5.326372e-02	0.0	1.391352e-01	-4.956648e-02	0.0	1.302484e-01	-4.609246e-02	0.0	1.215555e-01	-4.281767e-02	0.0	1.130991e-01	-3.963197e-02	0.0	1.046422e-01	-3.727426e-02	0.0	9.638928e-02	-3.509865e-02	0.0	8.833078e-02	-3.319160e-02	0.0	8.041716e-02	-3.176567e-02	0.0	7.274269e-02	-3.038284e-02	0.0	6.527587e-02	-2.921266e-02	0.0	5.804054e-02	-2.809248e-02	0.0	5.108137e-02	-2.675469e-02	0.0	4.436606e-02	-2.535554e-02	0.0	3.798080e-02	-2.357772e-02	0.0	3.185469e-02	-2.167824e-02	0.0	2.615063e-02	-1.926509e-02	0.0	2.073276e-02	-1.673543e-02	0.0	1.574857e-02	-1.381061e-02	0.0	1.112401e-02	-1.070754e-02	0.0	6.807721e-03	-7.498004e-03	0.0	3.014972e-03	-3.959185e-03	0.0	5.114028e-01	-5.406342e-02	0.0	5.232281e-01	-5.354416e-02	0.0	8.677192e+01	2.599372e+01	0.0	8.341923e+01	1.750126e+01	0.0	9.079239e+01	1.801517e+01	0.0	7.870874e+01	-1.275624e+01	0.0	7.856961e+01	-2.303693e+01	0.0	8.801939e+01	-1.771200e+01	0.0	8.660030e+01	-4.898402e+00	0.0	2.596368e+01	2.783923e+01	0.0	3.648483e+01	2.648103e+01	0.0	3.716261e+01	3.630771e+01	0.0	8.076250e+01	3.569097e+01	0.0	6.786866e+01	3.505545e+01	0.0	7.487520e+01	2.364014e+01	0.0	6.804852e+01	-3.157565e+01	0.0	7.587455e+01	-4.211869e+01	0.0	8.181207e+01	-3.528693e+01	0.0	8.782816e+01	-2.750003e+01	0.0	5.627285e+01	3.193241e+01	0.0	5.747504e+01	4.175440e+01	0.0	4.822399e+01	3.767836e+01	0.0	6.400787e+01	-5.158541e+01	0.0	6.083749e+01	-5.938802e+01	0.0	6.896690e+01	-5.985626e+01	0.0	6.909498e+01	5.960284e+01	0.0	7.326911e+01	5.133774e+01	0.0	5.954801e+01	6.414827e+01	0.0	4.386649e+01	-6.371286e+01	0.0	4.469135e+01	-7.471377e+01	0.0	5.333401e+01	-7.186318e+01	0.0	6.794198e+01	-4.347254e+01	0.0	4.869039e+01	7.124985e+01	0.0	2.652941e+01	6.808269e+01	0.0	2.922073e+01	5.758974e+01	0.0	3.597364e+01	6.916598e+01	0.0	5.305064e+01	-5.380487e+01	0.0	5.487249e+01	-6.336758e+01	0.0	3.054980e+01	8.612231e+01	0.0	3.972617e+01	8.041745e+01	0.0	3.685743e+01	-7.230813e+01	0.0	2.659135e+01	-7.649065e+01	0.0	3.831898e+01	-8.098443e+01	0.0	7.641677e+00	4.871092e+01	0.0	-7.457583e-01	4.519440e+01	0.0	6.131356e+00	3.910410e+01	0.0	9.339739e+00	7.902765e+01	0.0	1.931711e+01	7.428925e+01	0.0	1.683405e+01	8.293987e+01	0.0	1.576396e+01	4.338848e+01	0.0	2.252031e+00	-2.859153e+00	0.0	1.778928e+00	-1.932603e+00	0.0	1.046341e+00	-2.720128e+00	0.0	2.242554e+00	8.746810e-01	0.0	2.784084e+00	1.380462e+00	0.0	1.992047e+00	1.550299e+00	0.0	1.179667e+00	1.009315e+00	0.0	1.336220e+00	1.515021e+00	0.0	8.932669e-01	1.389163e+00	0.0	1.451657e+00	4.507661e-01	0.0	1.460149e+00	7.276533e-01	0.0	1.201619e+00	5.999610e-01	0.0	1.013115e+00	8.443676e-02	0.0	1.043901e+00	9.080615e-02	0.0	1.026814e+00	1.196634e-01	0.0	1.005837e+00	1.086199e-02	0.0	1.001791e+00	1.779583e-02	0.0	9.995940e-01	1.088397e-02	0.0	2.395499e-02	-5.150950e-02	0.0	2.524879e-02	-4.145336e-02	0.0	1.507823e-02	-4.346264e-02	0.0	5.054556e-02	-4.436027e-02	0.0	5.025597e-02	-5.417142e-02	0.0	5.812523e-02	-4.895334e-02	0.0	1.980480e-01	9.766191e-02	0.0	1.723682e-01	1.037680e-01	0.0	1.826442e-01	8.530409e-02	0.0	4.400053e-01	-5.871775e-
[...]
POINT_DATA 1835

SCALARS Density double 1
LOOKUP_TABLE default
1.291472e+00	1.291558e+00	1.292005e+00	1.292198e+00	1.292124e+00	1.292069e+00	1.292047e+00	1.292008e+00	1.291958e+00	1.291912e+00	1.291877e+00	1.291863e+00	1.291874e+00	1.291922e+00	1.291997e+00	1.292069e+00	1.292135e+00	1.292183e+00	1.292221e+00	1.292248e+00	1.292268e+00	1.292283e+00	1.292293e+00	1.292303e+00	1.292311e+00	1.292319e+00	1.292329e+00	1.292341e+00	1.292355e+00	1.292373e+00	1.292397e+00	1.292429e+00	1.292465e+00	1.292513e+00	1.292571e+00	1.292638e+00	1.292699e+00	1.292745e+00	1.292753e+00	1.292726e+00	1.292677e+00	1.292616e+00	1.292555e+00	1.292493e+00	1.292426e+00	1.292391e+00	1.292426e+00	1.292311e+00	1.291881e+00	1.541022e+00	1.148082e+00	1.155832e+00	1.100995e+00	1.079419e+00	1.061807e+00	1.055779e+00	1.034224e+00	1.010256e+00	9.678066e-01	9.197255e-01	8.536867e-01	7.930682e-01	7.122288e-01	6.452176e-01	6.546045e-01	7.974537e-01	1.097049e+00	1.197407e+00	1.216890e+00	1.213689e+00	1.219031e+00	1.217809e+00	1.218970e+00	1.218306e+00	1.215516e+00	1.216877e+00	1.215550e+00	1.218690e+00	1.218966e+00	1.219405e+00	1.221644e+00	1.219009e+00	1.220308e+00	1.216210e+00	1.205255e+00	1.199506e+00	1.180685e+00	1.155844e+00	1.132856e+00	1.103065e+00	1.061706e+00	1.026402e+00	9.801281e-01	9.281322e-01	8.998242e-01	8.466560e-01	8.053706e-01	7.790083e-01	7.465602e-01	7.331757e-01	7.107895e-01	6.920828e-01	6.807144e-01	6.655392e-01	6.560402e-01	6.329461e-01	6.116324e-01	5.883554e-01	5.496914e-01	5.259227e-01	5.439120e-01	6.904349e-01	1.035740e+00	1.127852e+00	1.149051e+00	1.168269e+00	1.183312e+00	1.195203e+00	1.208757e+00	1.212038e+00	1.219005e+00	1.221806e+00	1.216876e+00	1.218549e+00	1.212055e+00	1.206675e+00	1.201273e+00	1.192991e+00	1.191319e+00	1.189868e+00	1.188845e+00	1.193612e+00	1.194118e+00	1.198718e+00	1.201919e+00	1.204988e+00	1.209387e+00	1.212197e+00	1.215167e+00	1.217747e+00	1.220231e+00	1.222909e+00	1.225541e+00	1.227630e+00	1.230555e+00	1.231135e+00	1.242799e+00	1.199138e+00	1.271593e+00	1.414595e+00	1.322336e+00	1.353589e+00	1.357653e+00	1.359484e+00	1.361811e+00	1.364236e+00	1.367100e+00	1.369187e+00	1.372060e+00	1.374968e+00	1.377067e+00	1.382749e+00	1.383216e+00	1.390287e+00	1.392804e+00	1.390685e+00	1.396333e+00	1.387163e+00	1.388722e+00	1.381242e+00	1.358079e+00	1.343011e+00	1.314934e+00	1.279656e+00	1.250723e+00	1.199849e+00	1.161856e+00	1.134922e+00	1.100204e+00	1.093360e+00	1.071773e+00	1.073153e+00	1.092620e+00	1.098801e+00	1.123463e+00	1.136920e+00	1.159094e+00	1.189093e+00	1.207949e+00	1.228599e+00	1.251594e+00	1.265171e+00	1.276708e+00	1.290171e+00	1.289032e+00	1.294420e+00	1.293540e+00	1.283838e+00	1.280834e+00	1.273105e+00	1.265278e+00	1.259506e+00	1.255722e+00	1.251567e+00	1.250896e+00	1.253088e+00	1.252076e+00	1.253582e+00	1.254135e+00	1.244664e+00	1.246478e+00	1.241295e+00	1.215009e+00	1.149182e+00	8.375782e-01	6.627245e-01	6.540332e-01	7.028859e-01	7.551084e-01	8.562540e-01	9.086423e-01	1.005782e+00	1.141117e+00	1.186833e+00	1.247858e+00	1.317495e+00	1.358425e+00	1.385043e+00	1.424748e+00	1.444378e+00	1.441456e+00	1.454028e+00	1.450267e+00	1.442324e+00	1.437621e+00	1.419558e+00	1.409429e+00	1.400576e+00	1.401659e+00	1.407176e+00	1.426715e+00	1.460891e+00	1.492840e+00	1.541453e+00	1.580258e+00	1.599071e+00	1.691242e+00	1.294563e+00	1.295418e+00	1.292057e+00	1.291896e+00	1.291858e+00	1.292071e+00	1.292201e+00	1.292157e+00	1.291757e+00	1.291663e+00	1.292006e+00	1.291850e+00	1.292112e+00	1.292115e+00	1.292073e+00	1.292414e+00	1.292375e+00	1.292356e+00	1.292296e+00	1.292028e+00	1.291990e+00	1.291964e+00	1.292455e+00	1.292499e+00	1.292466e+00	1.292038e+00	1.292047e+00	1.291993e+00	1.292617e+00	1.292631e+00	1.292577e+00	1.292398e+00	1.291940e+00	1.291781e+00	1.291775e+00	1.291855e+00	1.292521e+00	1.292544e+00	1.291864e+00	1.291896e+00	1.292684e+00	1.292750e+00	1.292681e+00	1.291463e+00	1.291392e+00	1.291208e+00	1.291769e+00	1.291767e+00	1.291800e+00	1.291469e+00	1.298373e+00	1.300255e+00	1.300146e+00	1.294485e+00	1.292695e+00	1.284429e+00	1.262799e+00	1.267849e+00	1.246004e+00	1.297627e+00	1.292180e+00	1.283072e+00	1.300435e+00	1.296539e+00	1.297984e+00	1.246014e+00	1.254673e+00	1.253422e+00	1.464972e+00	1.468199e+00	1.490050e+00	1.428753e+00	1.431708e+00	1.427845e+00	1.237113e+00	1.237479e+00	1.237752e+00	1.266961e+00	1.268497e+00	1.275404e+00	1.231348e+00	1.251417e+00	1.206501e+00	7.353043e-01	6.930177e-01	1.496834e+00	1.478946e+00	1.453616e+00	1.413137e+00	1.417050e+00	1.329703e+00	1.345339e+00	1.357433e+00	1.237384e+00	1.231592e+00	1.228439e+00	1.233863e+00	1.225070e+00	1.225848e+00	1.223603e+00	1.233366e+00	1.226384e+00	1.227756e+00	1.233488e+00	1.224125e+00	1.224680e+00	1.229148e+00	1.226981e+00	1.230483e+00	1.234475e+00	1.217331e+00	1.201792e+00	1.226764e+00	1.226299e+00	1.222138e+00	1.215058e+00	1.169166e+00	1.196696e+00	1.189034e+00	9.006477e-01	9.397650e-01	9.353253e-01	9.854506e-01	9.569602e-01	1.094291e+00	1.057828e+00	1.071258e+00	1.371851e+00	1.245918e+00	1.240831e+00	1.231134e+00	1.204681e+00	1.213775e+00	1.209706e+00	1.198985e+00	1.209015e+00	1.224211e+00	1.245247e+00	1.236720e+00	1.252258e+00	1.234814e+00	1.242239e+00	1.251670e+00	1.259533e+00	1.253474e+00	1.278079e+00	1.277796e+00	1.282108e+00	1.203691e+00	1.203249e+00	1.220622e+00	1.212683e+00	1.209381e+00	1.223853e+00	1.220900e+00	1.221313e+00	1.219771e+00	1.000424e+00	9.925935e-01	6.966004e-01	9.282422e-01	8.484031e-01	9.312927e-01	1.212380e+00	1.270228e+00	1.281080e+00	1.283638e+00	1.220333e+00	1.214304e+00	1.216123e+00	1.272992e+00	1.260494e+00	1.274399e+00	1.228450e+00	1.221993e+00	1.221653e+00	1.231996e+00	1.242747e+00	1.229393e+00	1.222169e+00	1.209955e+00	1.212539e+00	1.230115e+00	1.242201e+00	1.145157e+00	1.190041e+00	1.054390e+00	8.660692e-01	7.768289e-01	1.248169e+00	1.256603e+00	1.225888e+00	1.607687e+00	1.609921e+00	1.575687e+00	1.433427e+00	1.436332e+00	1.429671e+00	1.608935e+00	1.599555e+00	1.577972e+00	1.428520e+00	1.430071e+00	1.363645e+00	1.347326e+00	1.344597e+00	1.621127e+00	1.600163e+00	1.378061e+00	1.341782e+00	1.353172e+00	1.436371e+00	1.435487e+00	1.443280e+00	1.278740e+00	1.238341e+00	1.255282e+00	1.313290e+00	1.302248e+00	1.289647e+00	1.301596e+00	1.312398e+00	1.209036e+00	1.242298e+00	1.332595e+00	1.310975e+00	1.319847e+00	1.114706e+00	1.139634e+00	1.370397e+00	1.379286e+00	1.382425e+00	1.387988e+00	1.384240e+00	1.103440e+00	1.386664e+00	1.087847e+00	1.388655e+00	1.386641e+00	1.388519e+00	1.386751e+00	1.390961e+00	1.390577e+00	1.391197e+00	1.389960e+00	1.232540e+00	1.197963e+00	1.201744e+00	1.386698e+00	1.381442e+00	1.379094e+00	1.382299e+00	1.384898e+00	1.384858e+00	1.379299e+00	1.383033e+00	1.380810e+00	1.368263e+00	1.099244e+00	1.112490e+00	1.180435e+00	1.188629e+00	1.161521e+00	1.302150e+00	1.299975e+00	1.304316e+00	1.437100e+00	1.443329e+00	1.207134e+00	1.214841e+00	1.233908e+00	1.173973e+00	1.154474e+00	1.181525e+00	1.148848e+00	1.189085e+00	1.161138e+00	1.163618e+00	1.196246e+00	1.292767e+00	1.292724e+00	1.216386e+00	1.346980e+00	1.407369e+00	1.226211e+00	1.230825e+00	1.224308e+00	1.231459e+00	1.227081e+00	1.253231e+00	1.296053e+00	1.296949e+00	1.200359e+00	1.232172e+00	1.281770e+00	1.236719e+00	1.249125e+00	1.238635e+00	1.272472e+00	1.186717e+00	1.185604e+00	1.208239e+00	1.217635e+00	5.976575e-01	9.208248e-01	8.623912e-01	5.834306e-01	5.867201e-01	6.156222e-01	1.291716e+00	1.291544e+00	1.291645e+00	8.050940e-01	9.778562e-01	9.048847e-01	6.170138e-01	6.338675e-01	6.580024e-01	6.300208e-01	1.291292e+00	1.291988e+00	1.291897e+00	7.049042e-01	7.082696e-01	6.883921e-01	6.787152e-01	7.461637e-01	7.347280e-01	1.162248e+00	1.149699e+00	1.130518e+00	1.173417e+00	1.101593e+00	1.206495e+00	1.210470e+00	1.182565e+00	1.229519e+00	1.224956e+00	1.231258e+00	9.863292e-01	9.131532e-01	1.223813e+00	1.221692e+00	9.349784e-01	9.670129e-01	8.542583e-01	8.694412e-01	8.176639e-01	7.854945e-01	7.773790e-01	8.704989e-01	8.252319e-01	1.212175e+00	1.216452e+00	1.220143e+00	1.291927e+00	1.284967e+00	1.292044e+00	1.045129e+00	1.098399e+00	1.081508e+00	9.847877e-01	8.901134e-01	1.149359e+00	9.741467e-01	1.013185e+00	1.045072e+00	1.292120e+00	6.693780e-01	9.778596e-01	9.207112e-01	9.778344e-01	1.291420e+00	1.291778e+00	1.291892e+00	1.292214e+00	1.292172e+00	1.291609e+00	1.292531e+00	1.292312e+00	1.166995e+00	1.144846e+00	1.126558e+00	1.292191e+00	1.292238e+00	1.292210e+00	1.075931e+00	1.056881e+00	1.023926e+00	1.292299e+00	1.292283e+00	1.292298e+00	1.292256e+00	1.292281e+00	1.292330e+00	1.292345e+00	1.292348e+00	1.292366e+00	1.292380e+00	1.292398e+00	1.292432e+00	1.292453e+00	1.292497e+00	1.292548e+00	1.292398e+00	1.292366e+00	1.292409e+00	1.292441e+00	1.292449e+00	1.292425e+00	1.292458e+00	1.292352e+00	1.292514e+00	1.293642e+00	1.293306e+00	1.293631e+00	1.292611e+00	1.292571e+00	1.292621e+00	1.400745e+00	1.452256e+00	1.415524e+00	1.293026e+00	1.293044e+00	1.292750e+00	1.292640e+00	1.292710e+00	1.308706e+00	1.302760e+00	1.307068e+00	1.443201e+00	1.414821e+00	1.430084e+00	1.292843e+00	1.292827e+00	1.292912e+00	1.421540e+00	1.394599e+00	1.292702e+00	1.292758e+00	1.292781e+00	1.366609e+00	1.385050e+00	1.382419e+00	1.252449e+00	1.177042e+00	1.209894e+00	1.298548e+00	1.299348e+00	1.297718e+00	1.298826e+00	1.301507e+00	1.306508e+00	1.263591e+00	1.234762e+00	1.241831e+00	1.272329e+00	1.264495e+00	1.279195e+00	1.288590e+00	1.285603e+00	9.580520e-01	1.053066e+00	1.257353e+00	1.265646e+00	1.258897e+00	1.291142e+00	1.260978e+00	1.259706e+00	1.294868e+00	1.267680e+00	1.260553e+00	1.261550e+00	1.296928e+00	1.293076e+00	1.291159e+00	1.296896e+00	1.273040e+00	1.263830e+00	1.262131e+00	1.260798e+00	1.283648e+00	1.292139e+00	1.295165e+00	1.292313e+00	1.111282e+00	1.042423e+00	1.292861e+00	1.292864e+00	1.293447e+00	1.366641e+00	1.363786e+00	1.293152e+00	1.293330e+00	1.293999e+00	1.292495e+00	1.292591e+00	1.292565e+00	1.293322e+00	1.292687e+00	1.291840e+00	1.291824e+00	1.291681e+00	1.291620e+00	1.291843e+00	1.292411e+00	1.291709e+00	1.291654e+00	1.292026e+00	1.292697e+00	1.292887e+00	1.292706e+00	1.292156e+00	1.292235e+00	1.292263e+00	1.103063e+00	1.292226e+00	1.292273e+00	1.295249e+00	1.295515e+00	1.294284e+00	1.291439e+00	1.291780e+00	1.290169e+00	1.291030e+00	1.290170e+00	1.289030e+00	1.289941e+00	1.293077e+00	1.292731e+00	1.292542e+00	1.292593e+00	1.292852e+00	1.292673e+00	1.292828e+00	1.292475e+00	1.292345e+00	1.292352e+00	1.292373e+00	1.292300e+00	1.291828e+00	1.291826e+00	1.292775e+00	1.292080e+00	1.292032e+00	1.292005e+00	1.291916e+00	1.291797e+00	1.291743e+00	1.291942e+00	1.291821e+00	1.292194e+00	1.292996e+00	1.292417e+00	1.292464e+00	1.292108e+00	1.291987e+00	1.292068e+00	1.291992e+00	1.291914e+00	1.292220e+00	1.292445e+00	1.292744e+00	1.314503e+00	1.260012e+00	1.276661e+00	8.923721e-01	8.577888e-01	8.157908e-01	1.280893e+00	1.298279e+00	1.308011e+00	1.293269e+00	1.293193e+00	1.291656e+00	1.292930e+00	1.292096e+00	1.292015e+00	1.292072e+00	1.292061e+00	1.292168e+00	1.292347e+00	1.292356e+00	1.292327e+00	1.291801e+00	1.292808e+00	1.292946e+00	1.292900e+00	1.292425e+00	1.292220e+00	1.292644e+00	1.293388e+00	1.293043e+00	1.292259e+00	1.291333e+00	1.291976e+00	1.294065e+00	1.294917e+00	1.294982e+00	1.294318e+00	1.294788e+00	1.292136e+00	1.292269e+00	1.290755e+00	1.290969e+00	6.856106e-01	6.704510e-01	6.596328e-01	1.292558e+00	1.291834e+00	1.292306e+00	1.292151e+00	1.292395e+00	1.292319e+00	1.292157e+00	1.291695e+00	1.291591e+00	1.291833e+00	1.292654e+00	1.292776e+00	1.291824e+00	1.291842e+00	1.291781e+00	1.292808e+00	1.292806e+00	1.291946e+00	1.292360e+00	1.292513e+00	1.292417e+00	1.292374e+00	1.292428e+00	1.292521e+00	1.292513e+00	1.292592e+00	1.292330e+00	1.292721e+00	1.292481e+00	1.291845e+00	1.291607e+00	1.292796e+00	1.292631e+00	1.291856e+00	1.292005e+00	1.292900e+00	1.292669e+00	1.292523e+00	1.291216e+00	1.290863e+00	1.293932e+00	1.292495e+00	1.292007e+00	1.291881e+00	1.292178e+00	1.292154e+00	1.291984e+00	1.292043e+00	1.292037e+00	1.291699e+00	1.291737e+00	1.293009e+00	1.291079e+00	1.292713e+00	1.291540e+00	1.291865e+00	1.291886e+00	1.292725e+00	1.292687e+00	1.292680e+00	1.292835e+00	1.291964e+00	1.291943e+00	1.291887e+00	1.292447e+00	1.292472e+00	1.292393e+00	1.286576e+00	1.288858e+00	1.289627e+00	1.292842e+00	1.293147e+00	1.292822e+00	1.292595e+00	1.295126e+00	1.296823e+00	1.296681e+00	1.287827e+00	1.289036e+00	1.294556e+00	1.291692e+00	1.291279e+00	1.288893e+00	1.291423e+00	1.331016e+00	1.331078e+00	1.294238e+00	1.290534e+00	1.296866e+00	1.295474e+00	1.294920e+00	1.292533e+00	1.289493e+00	1.291919e+00	1.291788e+00	1.285377e+00	1.287364e+00	1.294441e+00	1.292914e+00	1.293354e+00	1.290804e+00	1.296157e+00	1.295669e+00	1.282577e+00	1.317706e+00	1.293374e+00	1.290888e+00	1.289624e+00	1.284410e+00	1.294076e+00	1.293995e+00	1.293780e+00	1.298526e+00	1.293244e+00	1.372360e+00	1.363964e+00	1.368408e+00	1.290298e+00	1.291082e+00	1.296969e+00	1.288631e+00	1.290925e+00	1.289692e+00	1.311527e+00	1.305112e+00	1.304225e+00	1.270293e+00	1.272298e+00	1.223024e+00	1.288997e+00	1.287954e+00	1.295100e+00	1.293267e+00	1.299566e+00	1.298430e+00	1.291749e+00	1.247446e+00	1.258233e+00	1.289328e+00	1.286335e+00	1.295919e+00	1.299627e+00	1.301332e+00	1.302692e+00	1.363108e+00	1.358838e+00	1.361914e+00	1.282868e+00	1.295912e+00	1.285111e+00	1.285940e+00	1.286846e+00	1.280947e+00	1.301772e+00	1.300943e+00	1.436133e+00	1.461828e+00	1.278733e+00	1.296561e+00	1.291666e+00	1.221980e+00	1.221638e+00	1.175246e+00	1.199162e+00	1.206506e+00	1.297105e+00	1.293178e+00	1.305061e+00	1.298615e+00	1.300827e+00	1.296876e+00	1.261486e+00	1.280260e+00	1.285982e+00	1.015793e+00	1.106208e+00	1.047376e+00	1.299225e+00	1.299938e+00	1.304201e+00	1.302787e+00	1.296834e+00	1.284952e+00	1.270968e+00	1.294955e+00	1.303426e+00	1.295149e+00	1.301070e+00	1.300077e+00	1.360351e+00	1.290737e+00	1.295185e+00	1.421762e+00	1.307862e+00	1.287782e+00	1.285005e+00	1.266020e+00	1.225334e+00	1.295575e+00	1.215692e+00	1.363077e+00	1.371764e+00	1.337117e+00	1.299864e+00	1.321679e+00	1.312507e+00	1.311837e+00	1.292492e+00	1.274407e+00	1.300303e+00	1.281453e+00	1.315186e+00	1.302360e+00	1.296569e+00	1.277603e+00	1.321648e+00	1.321896e+00	1.334625e+00	1.318265e+00	1.313424e+00	1.308511e+00	1.293244e+00	1.243737e+00	1.310305e+00	1.311853e+00	1.308186e+00	1.070995e+00	1.103861e+00	1.134574e+00	1.305345e+00	1.311617e+00	1.278074e+00	1.289122e+00	1.297329e+00	1.313129e+00	1.316644e+00	1.301625e+00	1.316383e+00	1.246666e+00	1.187375e+00	1.147768e+00	1.278396e+00	1.301257e+00	1.286972e+00	1.340576e+00	1.360016e+00	1.377242e+00	1.231813e+00	1.228611e+00	1.265609e+00	1.306600e+00	1.246939e+00	1.156357e+00	1.128804e+00	1.300667e+00	1.293547e+00	1.314326e+00	1.306748e+00	1.297129e+00	1.321425e+00	1.313637e+00	1.322456e+00	1.362091e+00	1.312188e+00	1.324209e+00	1.086216e+00	1.285784e+00	1.193068e+00	1.316245e+00	1.281713e+00	1.278736e+00	1.278817e+00	1.293354e+00	1.253280e+00	1.292893e+00	1.274705e+00	1.282899e+00	1.125502e+00	1.147873e+00	1.281948e+00	1.015998e+00	1.332925e+00	1.291141e+00	1.260712e+00	1.338368e+00	1.344673e+00	1.348718e+00	1.262667e+00	1.289715e+00	1.265515e+00	1.272005e+00	1.334473e+00	1.387619e+00	1.409586e+00	1.411502e+00	1.284866e+00	1.310815e+00	1.427480e+00	1.426241e+00	1.294444e+00	1.328898e+00	1.238206e+00	1.238390e+00	1.206042e+00	1.210750e+00	1.329197e+00	1.206900e+00	1.241248e+00	1.159838e+00	1.326865e+00	1.322918e+00	1.325786e+00	1.026532e+00	1.111302e+00	1.169822e+00	1.119294e+00	1.337459e+00	1.276043e+00	1.475209e+00	1.493513e+00	1.345414e+00	1.328878e+00	1.273305e+00	1.271493e+00	1.294572e+00	1.377804e+00	1.375078e+00	1.331878e+00	1.325254e+00	1.350821e+00	1.302874e+00	1.260926e+00	1.315206e+00	1.338371e+00	1.270309e+00	1.223752e+00	1.250022e+00	1.271767e+00	1.256079e+00	1.275189e+00	1.252987e+00	1.257827e+00	1.278717e+00	1.274733e+00	1.383849e+00	1.371846e+00	1.401119e+00	1.422177e+00	1.448397e+00	1.440152e+00	1.290305e+00	1.176415e+00	1.326919e+00	9.318357e-01	9.501353e-01	1.004286e+00	6.688579e-01	1.332545e+00	1.332486e+00	1.317065e+00	1.301572e+00	1.330040e+00	1.290954e+00	1.295002e+00	1.050412e+00	1.090297e+00	1.097261e+00	1.200165e+00	1.355533e+00	1.364202e+00	1.281492e+00	1.299483e+00	1.303880e+00	1.355584e+00	1.433098e+00	1.326836e+00	1.375966e+00	1.329872e+00	1.225044e+00	1.207168e+00	1.226407e+00	1.277478e+00	1.280959e+00	1.281038e+00	1.233951e+00	1.347399e+00	1.359669e+00	1.280426e+00	1.233760e+00	1.219071e+00	1.186504e+00	1.272294e+00	1.372011e+00	1.266628e+00	1.234206e+00	1.163832e+00	1.124921e+00	1.049002e+00	1.011287e+00	9.810462e-01	9.489880e-01	9.593655e-01	1.277185e+00	1.365728e+00	1.364091e+00	1.364547e+00	1.352980e+00	1.261163e+00	1.253449e+00	1.278997e+00	1.260346e+00	1.201851e+00	1.287785e+00	1.312031e+00	1.231612e+00	7.730819e-01	8.033344e-01	7.522414e-01	8.492109e-01	1.267879e+00	1.243670e+00	1.251288e+00	1.346846e+00	1.434615e+00	1.119230e+00	1.266179e+00	1.281326e+00	1.286801e+00	1.295508e+00	1.284458e+00	1.290587e+00	1.039285e+00	9.903113e-01	1.158936e+00	1.341315e+00	1.335921e+00	1.337777e+00	1.326206e+00	1.087709e+00	1.059845e+00	1.276319e+00	1.156782e+00	1.198660e+00	1.382223e+00	1.273809e+00	1.267275e+00	1.164433e+00	1.181185e+00	1.152007e+00	1.118375e+00	1.044971e+00	1.103952e+00	1.253566e+00	1.282021e+00	1.273460e+00	1.142649e+00	1.215126e+00	1.340827e+00	1.295309e+00	1.400763e+00	1.392348e+00	1.278810e+00	1.239845e+00	8.606004e-01	8.018236e-01	1.262439e+00	1.285839e+00	1.421441e+00	1.424509e+00	1.428954e+00	1.406350e+00	8.895642e-01	8.496731e-01	1.274571e+00	1.261231e+00	1.127917e+00	1.157848e+00	1.112817e+00	1.154890e+00	1.168481e+00	1.160455e+00	7.662993e-01	1.239229e+00	1.289720e+00	1.268340e+00	1.292458e+00	1.312614e+00	1.334402e+00	1.281584e+00	1.125523e+00	1.219240e+00	1.460277e+00	1.422566e+00	1.404033e+00	8.635597e-01	1.282369e+00	1.286641e+00	1.292159e+00	1.287302e+00	1.412090e+00	9.194519e-01	8.323196e-01	1.156323e+00	1.215435e+00	1.193630e+00	1.225163e+00	1.438588e+00	1.378917e+00	1.375900e+00	1.378529e+00	1.371680e+00	6.933151e-01	1.260925e+00	1.216698e+00	1.193921e+00	1.115471e+00	1.284894e+00	1.284409e+00	1.236140e+00	1.487144e+00	1.520449e+00	1.499014e+00	1.476401e+00	1.463226e+00	7.460659e-01	7.275050e-01	8.012830e-01	1.227863e+00	1.320764e+00	1.382500e+00	1.354150e+00	1.176825e+00	1.191311e+00	1.377400e+00	1.384174e+00	1.381485e+00	1.371782e+00	1.366346e+00	1.405759e+00	8.014481e-01	9.160597e-01	1.248039e+00	1.237870e+00	8.189744e-01	7.910079e-01	1.209740e+00	1.226003e+00	1.238146e+00	1.241031e+00	1.234813e+00	1.291243e+00	1.100049e+00	1.300110e+00	1.269068e+00	1.260992e+00	1.277939e+00	1.266592e+00	1.048780e+00	1.021320e+00	9.011301e-01	1.338366e+00	1.409898e+00	1.368550e+00	1.238232e+00	1.418918e+00	1.406228e+00	1.034660e+00	1.140357e+00	1.224682e+00	1.228120e+00	1.250715e+00	1.291732e+00	1.331356e+00	1.339689e+00	1.274421e+00	6.780879e-01	7.312119e-01	1.302249e+00	1.299128e+00	1.296962e+00	1.298029e+00	1.281789e+00	1.481068e+00	1.522830e+00	1.198971e+00	7.368313e-01	1.054038e+00	1.275801e+00	1.276184e+00	1.277832e+00	1.318317e+00	1.356327e+00	1.354492e+00	1.347493e+00	1.283691e+00	1.268532e+00	1.344319e+00	1.242339e+00	1.236698e+00	1.247410e+00	1.246338e+00	1.237646e+00	1.238439e+00	1.239192e+00	1.233354e+00	1.153438e+00	1.060411e+00	1.114241e+00	1.270704e+00	1.256389e+00	1.260805e+00	7.001190e-01	5.460803e-01	1.046680e+00	6.932219e-01	6.769386e-01	1.379827e+00	1.385328e+00	9.714506e-01	8.831008e-01	9.404531e-01	1.368827e+00	1.372085e+00	1.387620e+00	1.387767e+00	1.404034e+00	1.433934e+00	1.225122e+00	1.159939e+00	1.138955e+00	1.183761e+00	1.216723e+00	7.403922e-01	7.158141e-01	7.519123e-01	7.898573e-01	7.420480e-01	1.275333e+00	1.343090e+00	1.266322e+00	1.135513e+00	1.200913e+00	1.230367e+00	1.014164e+00	1.299607e+00	1.229121e+00	1.234262e+00	1.197481e+00	1.189984e+00	1.143745e+00	1.233679e+00	1.123757e+00	1.264317e+00	1.241433e+00	1.208952e+00	6.985014e-01	9.923858e-01	1.206909e+00	1.249439e+00	1.433093e+00	1.418343e+00	1.246394e+00	1.250776e+00	1.373819e+00	1.344657e+00	1.301820e+00	1.290682e+00	1.293403e+00	1.241085e+00	1.274492e+00	1.265501e+00	1.266649e+00	8.224088e-01	1.009453e+00	1.286598e+00	1.238887e+00	1.254496e+00	1.018942e+00	1.272104