# vtk DataFile Version 3.0
vtk output
ASCII
DATASET UNSTRUCTURED_GRID
POINTS 198 double
0.000000e+00	0.000000e+00	0.0	3.434515e-03	3.633745e-03	0.0	7.157146e-03	7.210672e-03	0.0	1.168667e-02	1.011204e-02	0.0	1.647918e-02	1.294328e-02	0.0	2.171367e-02	1.538943e-02	0.0	2.717923e-02	1.782045e-02	0.0	3.295367e-02	2.006622e-02	0.0	3.896627e-02	2.228715e-02	0.0	4.526630e-02	2.435898e-02	0.0	5.184095e-02	2.628926e-02	0.0	5.871309e-02	2.801361e-02	0.0	6.590243e-02	2.933938e-02	0.0	7.336971e-02	3.047826e-02	0.0	8.115171e-02	3.089629e-02	0.0	8.918025e-02	3.118660e-02	0.0	9.746079e-02	3.126239e-02	0.0	1.059879e-01	3.140295e-02	0.0	1.147641e-01	3.157620e-02	0.0	1.237800e-01	3.203876e-02	0.0	1.330444e-01	3.259363e-02	0.0	1.425472e-01	3.334594e-02	0.0	1.522925e-01	3.424342e-02	0.0	1.622856e-01	3.519857e-02	0.0	1.725129e-01	3.633486e-02	0.0	1.829885e-01	3.749872e-02	0.0	1.937013e-01	3.876594e-02	0.0	2.046522e-01	4.010410e-02	0.0	2.158414e-01	4.148019e-02	0.0	2.272506e-01	4.300493e-02	0.0	2.388899e-01	4.456042e-02	0.0	2.507370e-01	4.626390e-02	0.0	2.627847e-01	4.812154e-02	0.0	2.750433e-01	5.001172e-02	0.0	2.874499e-01	5.226223e-02	0.0	3.000461e-01	5.457635e-02	0.0	3.128004e-01	5.706120e-02	0.0	3.256799e-01	5.983318e-02	0.0	3.387242e-01	6.264063e-02	0.0	3.519170e-01	6.550728e-02	0.0	3.652509e-01	6.841223e-02	0.0	3.787354e-01	7.124755e-02	0.0	3.924072e-01	7.376745e-02	0.0	4.061854e-01	7.630698e-02	0.0	4.201525e-01	7.822895e-02	0.0	4.342419e-01	7.988136e-02	0.0	4.484138e-01	8.133612e-02	0.0	4.627052e-01	8.195063e-02	0.0	4.770340e-01	8.256675e-02	0.0	4.913936e-01	8.258988e-02	0.0	5.057640e-01	8.237759e-02	0.0	5.201219e-01	8.202362e-02	0.0	5.344414e-01	8.122057e-02	0.0	5.487235e-01	8.041960e-02	0.0	5.629285e-01	7.927262e-02	0.0	5.770589e-01	7.801951e-02	0.0	5.910903e-01	7.660669e-02	0.0	6.049757e-01	7.474026e-02	0.0	6.187539e-01	7.288827e-02	0.0	6.323061e-01	7.041730e-02	0.0	6.456915e-01	6.775978e-02	0.0	6.588867e-01	6.493391e-02	0.0	6.717391e-01	6.134908e-02	0.0	6.844292e-01	5.780954e-02	0.0	6.968389e-01	5.396424e-02	0.0	7.089927e-01	4.992666e-02	0.0	7.209591e-01	4.595137e-02	0.0	7.327457e-01	4.208816e-02	0.0	7.443303e-01	3.829442e-02	0.0	7.557834e-01	3.483859e-02	0.0	7.671683e-01	3.196129e-02	0.0	7.783281e-01	2.914089e-02	0.0	7.894777e-01	2.752693e-02	0.0	8.004161e-01	2.609053e-02	0.0	8.111596e-01	2.522205e-02	0.0	8.216880e-01	2.472673e-02	0.0	8.319697e-01	2.431608e-02	0.0	8.420046e-01	2.403185e-02	0.0	8.517838e-01	2.369059e-02	0.0	8.612904e-01	2.297195e-02	0.0	8.705451e-01	2.227237e-02	0.0	8.795120e-01	2.123321e-02	0.0	8.882201e-01	2.012814e-02	0.0	8.966676e-01	1.896401e-02	0.0	9.048438e-01	1.765140e-02	0.0	9.127779e-01	1.637765e-02	0.0	9.204559e-01	1.504315e-02	0.0	9.278944e-01	1.372846e-02	0.0	9.350979e-01	1.244127e-02	0.0	9.420682e-01	1.117085e-02	0.0	9.488136e-01	9.941031e-03	0.0	9.553327e-01	8.722816e-03	0.0	9.616353e-01	7.545068e-03	0.0	9.677217e-01	6.386173e-03	0.0	9.735998e-01	5.263112e-03	0.0	9.792714e-01	4.159967e-03	0.0	9.847434e-01	3.087928e-03	0.0	9.900195e-01	2.040197e-03	0.0	9.951036e-01	1.012249e-03	0.0	1.000000e+00	0.000000e+00	0.0	9.950041e-01	2.004186e-04	0.0	9.898204e-01	3.934301e-04	0.0	9.844427e-01	5.390740e-04	0.0	9.788669e-01	6.418372e-04	0.0	9.730885e-01	7.210754e-04	0.0	9.671026e-01	7.437002e-04	0.0	9.609052e-01	7.437287e-04	0.0	9.544917e-01	6.783806e-04	0.0	9.478577e-01	5.970896e-04	0.0	9.410005e-01	4.190895e-04	0.0	9.339143e-01	2.351451e-04	0.0	9.265990e-01	-6.184635e-05	0.0	9.190482e-01	-3.935443e-04	0.0	9.112638e-01	-8.363017e-04	0.0	9.032475e-01	-1.466717e-03	0.0	8.949862e-01	-2.116397e-03	0.0	8.865276e-01	-3.241305e-03	0.0	8.778284e-01	-4.465709e-03	0.0	8.689380e-01	-6.037260e-03	0.0	8.598879e-01	-8.131569e-03	0.0	8.505910e-01	-1.028299e-02	0.0	8.412772e-01	-1.331646e-02	0.0	8.317270e-01	-1.644335e-02	0.0	8.219900e-01	-1.980305e-02	0.0	8.120486e-01	-2.333886e-02	0.0	8.018347e-01	-2.684223e-02	0.0	7.912875e-01	-3.012136e-02	0.0	7.805094e-01	-3.347231e-02	0.0	7.692665e-01	-3.598979e-02	0.0	7.577736e-01	-3.847128e-02	0.0	7.459712e-01	-4.048784e-02	0.0	7.338596e-01	-4.200532e-02	0.0	7.215348e-01	-4.354015e-02	0.0	7.089267e-01	-4.422996e-02	0.0	6.961208e-01	-4.493060e-02	0.0	6.831163e-01	-4.526866e-02	0.0	6.699226e-01	-4.523441e-02	0.0	6.565599e-01	-4.519972e-02	0.0	6.430502e-01	-4.465129e-02	0.0	6.293944e-01	-4.408764e-02	0.0	6.156062e-01	-4.347322e-02	0.0	6.016986e-01	-4.280331e-02	0.0	5.876825e-01	-4.212817e-02	0.0	5.735593e-01	-4.178732e-02	0.0	5.593547e-01	-4.145133e-02	0.0	5.450836e-01	-4.145980e-02	0.0	5.307605e-01	-4.181927e-02	0.0	5.164004e-01	-4.219073e-02	0.0	5.020418e-01	-4.310482e-02	0.0	4.876756e-01	-4.401938e-02	0.0	4.733267e-01	-4.506706e-02	0.0	4.590083e-01	-4.622558e-02	0.0	4.447271e-01	-4.737824e-02	0.0	4.304947e-01	-4.848423e-02	0.0	4.163289e-01	-4.958504e-02	0.0	4.022411e-01	-5.064228e-02	0.0	3.882461e-01	-5.166565e-02	0.0	3.743610e-01	-5.270054e-02	0.0	3.606122e-01	-5.390955e-02	0.0	3.469972e-01	-5.510678e-02	0.0	3.335591e-01	-5.658190e-02	0.0	3.202987e-01	-5.823288e-02	0.0	3.072125e-01	-5.990684e-02	0.0	2.943727e-01	-6.203082e-02	0.0	2.817196e-01	-6.412394e-02	0.0	2.692414e-01	-6.605229e-02	0.0	2.569502e-01	-6.783917e-02	0.0	2.448708e-01	-6.959361e-02	0.0	2.328967e-01	-7.010706e-02	0.0	2.211498e-01	-7.061077e-02	0.0	2.096879e-01	-7.008373e-02	0.0	1.985196e-01	-6.844997e-02	0.0	1.875908e-01	-6.685123e-02	0.0	1.772830e-01	-6.366648e-02	0.0	1.672445e-01	-6.041661e-02	0.0	1.575126e-01	-5.705646e-02	0.0	1.482068e-01	-5.326372e-02	0.0	1.391352e-01	-4.956648e-02	0.0	1.302484e-01	-4.609246e-02	0.0	1.215555e-01	-4.281767e-02	0.0	1.130991e-01	-3.963197e-02	0.0	1.046422e-01	-3.727426e-02	0.0	9.638928e-02	-3.509865e-02	0.0	8.833078e-02	-3.319160e-02	0.0	8.041716e-02	-3.176567e-02	0.0	7.274269e-02	-3.038284e-02	0.0	6.527587e-02	-2.921266e-02	0.0	5.804054e-02	-2.809248e-02	0.0	5.108137e-02	-2.675469e-02	0.0	4.436606e-02	-2.535554e-02	0.0	3.798080e-02	-2.357772e-02	0.0	3.185469e-02	-2.167824e-02	0.0	2.615063e-02	-1.926509e-02	0.0	2.073276e-02	-1.673543e-02	0.0	1.574857e-02	-1.381061e-02	0.0	1.112401e-02	-1.070754e-02	0.0	6.807721e-03	-7.498004e-03	0.0	3.014972e-03	-3.959185e-03	0.0	
CELLS 198	594
2	12	13	2	13	14	2	14	15	2	15	16	2	16	17	2	17	18	2	18	19	2	19	20	2	20	21	2	21	22	2	22	23	2	23	24	2	24	25	2	25	26	2	26	27	2	27	28	2	28	29	2	29	30	2	30	31	2	31	32	2	32	33	2	33	34	2	34	35	2	35	36	2	36	37	2	37	38	2	38	39	2	39	40	2	40	41	2	41	42	2	42	43	2	43	44	2	44	45	2	45	46	2	46	47	2	47	48	2	48	49	2	49	50	2	50	51	2	51	52	2	52	53	2	53	54	2	54	55	2	55	56	2	56	57	2	57	58	2	58	59	2	59	60	2	60	61	2	61	62	2	62	63	2	63	64	2	64	65	2	65	66	2	66	67	2	67	68	2	68	69	2	69	70	2	70	71	2	71	72	2	72	73	2	73	74	2	74	75	2	75	76	2	76	77	2	77	78	2	78	79	2	79	80	2	80	81	2	81	82	2	82	83	2	83	84	2	84	85	2	85	86	2	86	87	2	87	88	2	88	89	2	89	90	2	90	91	2	91	92	2	92	93	2	93	94	2	94	95	2	95	96	2	96	97	2	97	98	2	98	99	2	99	100	2	100	101	2	101	102	2	102	103	2	103	104	2	104	105	2	105	106	2	106	107	2	107	108	2	108	109	2	109	110	2	110	111	2	111	112	2	112	113	2	113	114	2	114	115	2	115	116	2	116	117	2	117	118	2	118	119	2	119	120	2	120	121	2	121	122	2	122	123	2	123	124	2	124	125	2	125	126	2	126	127	2	127	128	2	128	129	2	129	130	2	130	131	2	131	132	2	132	133	2	133	134	2	134	135	2	135	136	2	136	137	2	137	138	2	138	139	2	139	140	2	140	141	2	141	142	2	142	143	2	143	144	2	144	145	2	145	146	2	146	147	2	0	1	2	1	2	2	2	3	2	3	4	2	4	5	2	5	6	2	6	7	2	7	8	2	8	9	2	9	10	2	10	11	2	11	12	2	147	148	2	148	149	2	149	150	2	150	151	2	151	152	2	152	153	2	153	154	2	154	155	2	155	156	2	156	157	2	157	158	2	158	159	2	159	160	2	160	161	2	161	162	2	162	163	2	163	164	2	164	165	2	165	166	2	166	167	2	167	168	2	168	169	2	169	170	2	170	171	2	171	172	2	172	173	2	173	174	2	174	175	2	175	176	2	176	177	2	177	178	2	178	179	2	179	180	2	180	181	2	181	182	2	182	183	2	183	184	2	184	185	2	185	186	2	186	187	2	187	188	2	188	189	2	189	190	2	190	191	2	191	192	2	192	193	2	193	194	2	194	195	2	195	196	2	196	197	2	197	0	
CELL_TYPES 198
3	3	3	3	3	3	3	3	3	3	3	3	3	3	3	3	3	3	3	3	3	3	3	3	3	3	3	3	3	3	3	3	3	3	3	3	3	3	3	3	3	3	3	3	3	3	3	3	3	3	3	3	3	3	3	3	3	3	3	3	3	3	3	3	3	3	3	3	3	3	3	3	3	3	3	3	3	3	3	3	3	3	3	3	3	3	3	3	3	3	3	3	3	3	3	3	3	3	3	3	3	3	3	3	3	3	3	3	3	3	3	3	3	3	3	3	3	3	3	3	3	3	3	3	3	3	3	3	3	3	3	3	3	3	3	3	3	3	3	3	3	3	3	3	3	3	3	3	3	3	3	3	3	3	3	3	3	3	3	3	3	3	3	3	3	3	3	3	3	3	3	3	3	3	3	3	3	3	3	3	3	3	3	3	3	3	3	3	3	3	3	3	3	3	3	3	3	3	
POINT_DATA 198

SCALARS Density double 1
LOOKUP_TABLE default
1.541022e+00	1.148082e+00	1.155832e+00	1.100995e+00	1.079419e+00	1.061807e+00	1.055779e+00	1.034224e+00	1.010256e+00	9.678066e-01	9.197255e-01	8.536867e-01	7.930682e-01	7.122288e-01	6.452176e-01	6.546045e-01	7.974537e-01	1.097049e+00	1.197407e+00	1.216890e+00	1.213689e+00	1.219031e+00	1.217809e+00	1.218970e+00	1.218306e+00	1.215516e+00	1.216877e+00	1.215550e+00	1.218690e+00	1.218966e+00	1.219405e+00	1.221644e+00	1.219009e+00	1.220308e+00	1.216210e+00	1.205255e+00	1.199506e+00	1.180685e+00	1.155844e+00	1.132856e+00	1.103065e+00	1.061706e+00	1.026402e+00	9.801281e-01	9.281322e-01	8.998242e-01	8.466560e-01	8.053706e-01	7.790083e-01	7.465602e-01	7.331757e-01	7.107895e-01	6.920828e-01	6.807144e-01	6.655392e-01	6.560402e-01	6.329461e-01	6.116324e-01	5.883554e-01	5.496914e-01	5.259227e-01	5.439120e-01	6.904349e-01	1.035740e+00	1.127852e+00	1.149051e+00	1.168269e+00	1.183312e+00	1.195203e+00	1.208757e+00	1.212038e+00	1.219005e+00	1.221806e+00	1.216876e+00	1.218549e+00	1.212055e+00	1.206675e+00	1.201273e+00	1.192991e+00	1.191319e+00	1.189868e+00	1.188845e+00	1.193612e+00	1.194118e+00	1.198718e+00	1.201919e+00	1.204988e+00	1.209387e+00	1.212197e+00	1.215167e+00	1.217747e+00	1.220231e+00	1.222909e+00	1.225541e+00	1.227630e+00	1.230555e+00	1.231135e+00	1.242799e+00	1.199138e+00	1.271593e+00	1.414595e+00	1.322336e+00	1.353589e+00	1.357653e+00	1.359484e+00	1.361811e+00	1.364236e+00	1.367100e+00	1.369187e+00	1.372060e+00	1.374968e+00	1.377067e+00	1.382749e+00	1.383216e+00	1.390287e+00	1.392804e+00	1.390685e+00	1.396333e+00	1.387163e+00	1.388722e+00	1.381242e+00	1.358079e+00	1.343011e+00	1.314934e+00	1.279656e+00	1.250723e+00	1.199849e+00	1.161856e+00	1.134922e+00	1.100204e+00	1.093360e+00	1.071773e+00	1.073153e+00	1.092620e+00	1.098801e+00	1.123463e+00	1.136920e+00	1.159094e+00	1.189093e+00	1.207949e+00	1.228599e+00	1.251594e+00	1.265171e+00	1.276708e+00	1.290171e+00	1.289032e+00	1.294420e+00	1.293540e+00	1.283838e+00	1.280834e+00	1.273105e+00	1.265278e+00	1.259506e+00	1.255722e+00	1.251567e+00	1.250896e+00	1.253088e+00	1.252076e+00	1.253582e+00	1.254135e+00	1.244664e+00	1.246478e+00	1.241295e+00	1.215009e+00	1.149182e+00	8.375782e-01	6.627245e-01	6.540332e-01	7.028859e-01	7.551084e-01	8.562540e-01	9.086423e-01	1.005782e+00	1.141117e+00	1.186833e+00	1.247858e+00	1.317495e+00	1.358425e+00	1.385043e+00	1.424748e+00	1.444378e+00	1.441456e+00	1.454028e+00	1.450267e+00	1.442324e+00	1.437621e+00	1.419558e+00	1.409429e+00	1.400576e+00	1.401659e+00	1.407176e+00	1.426715e+00	1.460891e+00	1.492840e+00	1.541453e+00	1.580258e+00	1.599071e+00	1.691242e+00	
VECTORS Momentum double
2.736794e+01	2.081492e+02	0.0	1.787941e+02	1.781232e+02	0.0	2.101775e+02	1.665119e+02	0.0	2.393403e+02	1.467385e+02	0.0	2.578254e+02	1.349835e+02	0.0	2.695234e+02	1.223295e+02	0.0	2.781581e+02	1.155341e+02	0.0	2.835631e+02	1.073781e+02	0.0	2.905702e+02	1.014732e+02	0.0	2.944385e+02	9.180454e+01	0.0	2.977346e+02	8.148802e+01	0.0	2.970528e+02	6.503675e+01	0.0	2.946188e+02	5.000398e+01	0.0	2.852223e+02	3.060327e+01	0.0	2.718587e+02	1.259656e+01	0.0	2.672530e+02	5.486377e+00	0.0	2.719230e+02	1.835029e+00	0.0	2.794745e+02	5.061580e+00	0.0	2.703665e+02	7.993986e+00	0.0	2.670512e+02	1.490143e+01	0.0	2.632345e+02	1.836858e+01	0.0	2.622485e+02	2.249024e+01	0.0	2.616962e+02	2.449687e+01	0.0	2.613531e+02	2.703966e+01	0.0	2.617626e+02	2.913706e+01	0.0	2.616500e+02	2.999460e+01	0.0	2.618932e+02	3.152930e+01	0.0	2.615499e+02	3.201620e+01	0.0	2.617127e+02	3.363599e+01	0.0	2.614572e+02	3.496558e+01	0.0	2.611484e+02	3.618892e+01	0.0	2.612732e+02	3.893946e+01	0.0	2.609357e+02	4.017424e+01	0.0	2.608421e+02	4.379529e+01	0.0	2.625467e+02	4.801825e+01	0.0	2.648913e+02	5.017451e+01	0.0	2.679086e+02	5.502876e+01	0.0	2.722807e+02	5.858738e+01	0.0	2.768937e+02	5.980946e+01	0.0	2.821984e+02	6.126591e+01	0.0	2.885949e+02	6.192220e+01	0.0	2.928975e+02	5.781342e+01	0.0	2.973326e+02	5.501894e+01	0.0	3.009960e+02	4.894270e+01	0.0	3.003014e+02	3.828428e+01	0.0	3.027685e+02	3.358563e+01	0.0	2.995983e+02	2.210585e+01	0.0	2.956380e+02	1.245832e+01	0.0	2.937371e+02	6.459057e+00	0.0	2.882702e+02	-1.831963e+00	0.0	2.870885e+02	-5.591061e+00	0.0	2.831486e+02	-1.111171e+01	0.0	2.792166e+02	-1.580203e+01	0.0	2.773304e+02	-1.906026e+01	0.0	2.737331e+02	-2.319093e+01	0.0	2.721228e+02	-2.554767e+01	0.0	2.663274e+02	-3.068234e+01	0.0	2.607331e+02	-3.484789e+01	0.0	2.549668e+02	-3.971002e+01	0.0	2.427340e+02	-4.624039e+01	0.0	2.344277e+02	-4.823214e+01	0.0	2.303646e+02	-5.311517e+01	0.0	2.178547e+02	-6.039457e+01	0.0	2.056212e+02	-5.657693e+01	0.0	1.839459e+02	-5.815732e+01	0.0	1.655658e+02	-5.467787e+01	0.0	1.498934e+02	-4.926365e+01	0.0	1.365260e+02	-4.450973e+01	0.0	1.238712e+02	-3.890590e+01	0.0	1.161291e+02	-3.197516e+01	0.0	1.088362e+02	-2.744708e+01	0.0	1.037754e+02	-2.053606e+01	0.0	1.053322e+02	-1.439489e+01	0.0	1.073113e+02	-1.149182e+01	0.0	1.120597e+02	-7.083807e+00	0.0	1.184818e+02	-5.168047e+00	0.0	1.247983e+02	-4.264366e+00	0.0	1.317712e+02	-4.143267e+00	0.0	1.371789e+02	-7.654273e+00	0.0	1.393851e+02	-1.050830e+01	0.0	1.405279e+02	-1.340452e+01	0.0	1.399745e+02	-1.709071e+01	0.0	1.388784e+02	-1.838073e+01	0.0	1.359943e+02	-2.032334e+01	0.0	1.324861e+02	-2.123654e+01	0.0	1.293494e+02	-2.165786e+01	0.0	1.261940e+02	-2.217538e+01	0.0	1.229394e+02	-2.183898e+01	0.0	1.197223e+02	-2.160777e+01	0.0	1.162510e+02	-2.116841e+01	0.0	1.126351e+02	-2.077913e+01	0.0	1.093474e+02	-2.045669e+01	0.0	1.060353e+02	-2.000305e+01	0.0	1.026101e+02	-1.954239e+01	0.0	9.936290e+01	-1.918766e+01	0.0	9.668390e+01	-1.883840e+01	0.0	9.351546e+01	-1.844098e+01	0.0	9.354923e+01	-1.829072e+01	0.0	8.142529e+01	-2.234973e+01	0.0	1.560535e+02	-3.345268e+00	0.0	2.630506e+02	-1.537948e+01	0.0	2.069552e+02	-3.074468e+00	0.0	2.203653e+02	-4.739715e+00	0.0	2.211672e+02	-3.590004e+00	0.0	2.194772e+02	-1.930662e+00	0.0	2.179282e+02	-4.055690e-01	0.0	2.167742e+02	1.111772e+00	0.0	2.150775e+02	2.405574e+00	0.0	2.135664e+02	4.098106e+00	0.0	2.122717e+02	5.477947e+00	0.0	2.105959e+02	7.023909e+00	0.0	2.087679e+02	8.883017e+00	0.0	2.064200e+02	1.041674e+01	0.0	2.042154e+02	1.388211e+01	0.0	2.019406e+02	1.579112e+01	0.0	1.984256e+02	2.100152e+01	0.0	1.974956e+02	2.697004e+01	0.0	1.972417e+02	3.125400e+01	0.0	1.966588e+02	4.041418e+01	0.0	1.988324e+02	4.586410e+01	0.0	1.996202e+02	5.547338e+01	0.0	2.055120e+02	6.712890e+01	0.0	2.169277e+02	7.259178e+01	0.0	2.261390e+02	7.906493e+01	0.0	2.388381e+02	8.329061e+01	0.0	2.520232e+02	8.204594e+01	0.0	2.630750e+02	8.173535e+01	0.0	2.777534e+02	7.354736e+01	0.0	2.865264e+02	6.318630e+01	0.0	2.905555e+02	5.629585e+01	0.0	2.967516e+02	4.379942e+01	0.0	2.968939e+02	3.741681e+01	0.0	2.998108e+02	2.676721e+01	0.0	2.995072e+02	1.634484e+01	0.0	2.960273e+02	1.182496e+01	0.0	2.954900e+02	3.184790e+00	0.0	2.910769e+02	-6.554359e-01	0.0	2.876808e+02	-6.540069e+00	0.0	2.823140e+02	-1.177377e+01	0.0	2.758126e+02	-1.174517e+01	0.0	2.709159e+02	-1.252153e+01	0.0	2.646741e+02	-1.281801e+01	0.0	2.585287e+02	-9.300372e+00	0.0	2.546453e+02	-6.158360e+00	0.0	2.511629e+02	-3.071627e+00	0.0	2.482559e+02	3.260877e+00	0.0	2.480299e+02	6.217409e+00	0.0	2.470357e+02	1.104050e+01	0.0	2.477719e+02	1.583261e+01	0.0	2.500316e+02	1.703333e+01	0.0	2.518043e+02	1.941494e+01	0.0	2.543917e+02	2.058488e+01	0.0	2.563847e+02	2.032018e+01	0.0	2.577939e+02	2.000367e+01	0.0	2.583638e+02	1.978073e+01	0.0	2.584601e+02	1.919150e+01	0.0	2.568933e+02	1.907879e+01	0.0	2.549414e+02	2.079732e+01	0.0	2.538173e+02	2.234126e+01	0.0	2.527210e+02	2.505384e+01	0.0	2.520381e+02	2.966229e+01	0.0	2.551497e+02	3.175708e+01	0.0	2.562688e+02	3.692233e+01	0.0	2.611967e+02	4.283164e+01	0.0	2.753607e+02	4.319837e+01	0.0	2.784335e+02	4.304463e+01	0.0	2.691397e+02	3.731865e+01	0.0	2.787762e+02	2.605653e+01	0.0	2.927682e+02	1.245409e+01	0.0	3.015477e+02	-2.957325e+00	0.0	3.199335e+02	-3.183645e+01	0.0	3.197703e+02	-4.681808e+01	0.0	3.241303e+02	-7.448883e+01	0.0	3.207576e+02	-1.030196e+02	0.0	3.064451e+02	-1.020457e+02	0.0	2.969380e+02	-1.116429e+02	0.0	2.823575e+02	-1.150555e+02	0.0	2.695603e+02	-1.075995e+02	0.0	2.616205e+02	-1.003910e+02	0.0	2.524290e+02	-9.538001e+01	0.0	2.447784e+02	-8.029696e+01	0.0	2.453253e+02	-6.641412e+01	0.0	2.461990e+02	-6.185290e+01	0.0	2.468163e+02	-5.148611e+01	0.0	2.510543e+02	-4.531487e+01	0.0	2.551136e+02	-4.299790e+01	0.0	2.596757e+02	-4.020484e+01	0.0	2.642594e+02	-4.575604e+01	0.0	2.652766e+02	-5.296056e+01	0.0	2.630173e+02	-6.379443e+01	0.0	2.564200e+02	-7.518285e+01	0.0	2.439679e+02	-8.854478e+01	0.0	2.222614e+02	-9.863099e+01	0.0	1.950213e+02	-1.019282e+02	0.0	1.586353e+02	-9.947468e+01	0.0	1.171797e+02	-8.239709e+01	0.0	7.025975e+01	-5.613879e+01	0.0	-5.708722e+00	4.950524e+00	0.0	
SCALARS Energy double 1
LOOKUP_TABLE default
3.382734e+05	2.569000e+05	2.595415e+05	2.489895e+05	2.452930e+05	2.420513e+05	2.412325e+05	2.369822e+05	2.324803e+05	2.239204e+05	2.142530e+05	2.006054e+05	1.880715e+05	1.709598e+05	1.563214e+05	1.575520e+05	1.861833e+05	2.480814e+05	2.683996e+05	2.722943e+05	2.713975e+05	2.724792e+05	2.721994e+05	2.724379e+05	2.723371e+05	2.717497e+05	2.720619e+05	2.717656e+05	2.724480e+05	2.725009e+05	2.725845e+05	2.730870e+05	2.725240e+05	2.728267e+05	2.721161e+05	2.699880e+05	2.690349e+05	2.654300e+05	2.605758e+05	2.561880e+05	2.504947e+05	2.422356e+05	2.353126e+05	2.261058e+05	2.153818e+05	2.098693e+05	1.988343e+05	1.901844e+05	1.847668e+05	1.778019e+05	1.750626e+05	1.702808e+05	1.662299e+05	1.638377e+05	1.605285e+05	1.585367e+05	1.534829e+05	1.488011e+05	1.437587e+05	1.350747e+05	1.296119e+05	1.326324e+05	1.603031e+05	2.308847e+05	2.493013e+05	2.529641e+05	2.563963e+05	2.591037e+05	2.612078e+05	2.638469e+05	2.643287e+05	2.656662e+05	2.662836e+05	2.652603e+05	2.657339e+05	2.645051e+05	2.635267e+05	2.625763e+05	2.609736e+05	2.606936e+05	2.604284e+05	2.602037e+05	2.611968e+05	2.612196e+05	2.621008e+05	2.626937e+05	2.632613e+05	2.641105e+05	2.646225e+05	2.651637e+05	2.656208e+05	2.660693e+05	2.665615e+05	2.670438e+05	2.674167e+05	2.679858e+05	2.680393e+05	2.705590e+05	2.608957e+05	2.784960e+05	3.137823e+05	2.913912e+05	2.986682e+05	2.995703e+05	2.998812e+05	3.003058e+05	3.007704e+05	3.013052e+05	3.016839e+05	3.022410e+05	3.027899e+05	3.031617e+05	3.042777e+05	3.042927e+05	3.057149e+05	3.061285e+05	3.056667e+05	3.068904e+05	3.049726e+05	3.054429e+05	3.039771e+05	2.994312e+05	2.968128e+05	2.913928e+05	2.846501e+05	2.792566e+05	2.692360e+05	2.621121e+05	2.569568e+05	2.499647e+05	2.488638e+05	2.443614e+05	2.447860e+05	2.487103e+05	2.496985e+05	2.547393e+05	2.571998e+05	2.615677e+05	2.674598e+05	2.709700e+05	2.749875e+05	2.794365e+05	2.819229e+05	2.841281e+05	2.867737e+05	2.863723e+05	2.875030e+05	2.872716e+05	2.852734e+05	2.847680e+05	2.832439e+05	2.817440e+05	2.806401e+05	2.799233e+05	2.790799e+05	2.789417e+05	2.793110e+05	2.789915e+05	2.792516e+05	2.793195e+05	2.773110e+05	2.778893e+05	2.769035e+05	2.717252e+05	2.588706e+05	1.951768e+05	1.596337e+05	1.589577e+05	1.698807e+05	1.809582e+05	2.029345e+05	2.134700e+05	2.338253e+05	2.616727e+05	2.699349e+05	2.821327e+05	2.957934e+05	3.034483e+05	3.084609e+05	3.162735e+05	3.197930e+05	3.189974e+05	3.216531e+05	3.207681e+05	3.192300e+05	3.184149e+05	3.147955e+05	3.129405e+05	3.111943e+05	3.114307e+05	3.124104e+05	3.161437e+05	3.225924e+05	3.283725e+05	3.375303e+05	3.445514e+05	3.474986e+05	3.667692e+05	
SCALARS Pressure double 1
LOOKUP_TABLE default
1.295891e+05	9.166405e+04	9.137522e+04	8.527860e+04	8.242460e+04	8.031895e+04	7.930757e+04	7.701371e+04	7.423889e+04	6.991090e+04	6.498063e+04	5.857846e+04	5.270830e+04	4.527667e+04	3.957016e+04	4.118951e+04	5.592793e+04	8.498859e+04	9.513977e+04	9.716012e+04	9.708492e+04	9.762526e+04	9.753397e+04	9.764811e+04	9.754713e+04	9.728738e+04	9.738856e+04	9.728205e+04	9.755300e+04	9.758371e+04	9.763347e+04	9.781085e+04	9.757385e+04	9.766529e+04	9.713194e+04	9.593386e+04	9.514163e+04	9.303228e+04	9.034484e+04	8.775320e+04	8.440166e+04	8.010403e+04	7.630869e+04	7.146642e+04	6.640413e+04	6.332219e+04	5.821507e+04	5.433047e+04	5.174437e+04	4.885782e+04	4.753354e+04	4.551870e+04	4.389015e+04	4.283086e+04	4.153276e+04	4.064063e+04	3.868295e+04	3.689375e+04	3.486921e+04	3.181454e+04	3.006107e+04	3.250220e+04	4.931663e+04	8.357156e+04	9.312067e+04	9.589401e+04	9.829665e+04	1.001563e+05	1.016622e+05	1.031382e+05	1.036526e+05	1.044304e+05	1.046634e+05	1.041897e+05	1.042243e+05	1.034812e+05	1.028262e+05	1.021368e+05	1.012249e+05	1.009973e+05	1.008218e+05	1.007362e+05	1.011904e+05	1.013211e+05	1.018365e+05	1.022154e+05	1.025797e+05	1.030659e+05	1.034071e+05	1.037675e+05	1.040938e+05	1.043994e+05	1.047203e+05	1.050369e+05	1.052982e+05	1.056173e+05	1.057398e+05	1.067614e+05	1.031692e+05	1.075664e+05	1.156964e+05	1.100770e+05	1.122888e+05	1.126204e+05	1.128654e+05	1.131474e+05	1.134190e+05	1.137539e+05	1.140087e+05	1.143239e+05	1.146576e+05	1.149232e+05	1.155324e+05	1.156592e+05	1.163836e+05	1.167343e+05	1.165527e+05	1.170439e+05	1.161775e+05	1.161806e+05	1.153753e+05	1.128890e+05	1.109326e+05	1.078281e+05	1.038603e+05	1.004696e+05	9.504460e+04	9.063374e+04	8.761167e+04	8.406307e+04	8.308618e+04	8.103469e+04	8.102902e+04	8.301513e+04	8.390342e+04	8.635013e+04	8.797540e+04	9.033955e+04	9.355524e+04	9.576981e+04	9.802165e+04	1.005543e+05	1.021898e+05	1.034873e+05	1.049290e+05	1.049849e+05	1.054900e+05	1.054542e+05	1.045067e+05	1.041001e+05	1.032776e+05	1.024012e+05	1.017526e+05	1.013208e+05	1.009025e+05	1.008372e+05	1.011333e+05	1.011455e+05	1.013427e+05	1.014425e+05	1.005757e+05	1.005482e+05	9.996028e+04	9.715794e+04	9.002738e+04	5.911652e+04	4.157306e+04	3.961028e+04	4.351923e+04	4.829676e+04	5.702886e+04	6.239874e+04	7.153549e+04	8.477656e+04	9.039410e+04	9.672365e+04	1.042052e+05	1.089767e+05	1.120456e+05	1.162876e+05	1.187279e+05	1.186364e+05	1.197976e+05	1.195407e+05	1.186675e+05	1.180545e+05	1.161901e+05	1.149697e+05	1.140282e+05	1.141207e+05	1.148157e+05	1.170147e+05	1.209421e+05	1.248617e+05	1.304631e+05	1.352235e+05	1.379879e+05	1.467009e+05	
SCALARS Temperature double 1
LOOKUP_TABLE default
2.929477e+02	2.781354e+02	2.754001e+02	2.698267e+02	2.660094e+02	2.635135e+02	2.616810e+02	2.594083e+02	2.559943e+02	2.516441e+02	2.461252e+02	2.390395e+02	2.315255e+02	2.214549e+02	2.136446e+02	2.191987e+02	2.443170e+02	2.698764e+02	2.767901e+02	2.781423e+02	2.786601e+02	2.789830e+02	2.790019e+02	2.790622e+02	2.789257e+02	2.788215e+02	2.787993e+02	2.787983e+02	2.788545e+02	2.788792e+02	2.789209e+02	2.789155e+02	2.788411e+02	2.788054e+02	2.782170e+02	2.772831e+02	2.763112e+02	2.744922e+02	2.722916e+02	2.698477e+02	2.665510e+02	2.628334e+02	2.589922e+02	2.540093e+02	2.492387e+02	2.451482e+02	2.395294e+02	2.350055e+02	2.313936e+02	2.279815e+02	2.258512e+02	2.230895e+02	2.209222e+02	2.191907e+02	2.173940e+02	2.158044e+02	2.129037e+02	2.101322e+02	2.064585e+02	2.016216e+02	1.991191e+02	2.081682e+02	2.488290e+02	2.810853e+02	2.876234e+02	2.907251e+02	2.931069e+02	2.948554e+02	2.963114e+02	2.972426e+02	2.979162e+02	2.984363e+02	2.984164e+02	2.982697e+02	2.979587e+02	2.974197e+02	2.968549e+02	2.961902e+02	2.955836e+02	2.953330e+02	2.951795e+02	2.951825e+02	2.953291e+02	2.955853e+02	2.959489e+02	2.962588e+02	2.965576e+02	2.968793e+02	2.971717e+02	2.974786e+02	2.977817e+02	2.980480e+02	2.983096e+02	2.985690e+02	2.988024e+02	2.989954e+02	2.992012e+02	2.992567e+02	2.997167e+02	2.946856e+02	2.849168e+02	2.899916e+02	2.889881e+02	2.889740e+02	2.892125e+02	2.894396e+02	2.896187e+02	2.898652e+02	2.900718e+02	2.902647e+02	2.904965e+02	2.907255e+02	2.910655e+02	2.912866e+02	2.916205e+02	2.919705e+02	2.919604e+02	2.920049e+02	2.917594e+02	2.914396e+02	2.909871e+02	2.895722e+02	2.877464e+02	2.856661e+02	2.827397e+02	2.798362e+02	2.759506e+02	2.717490e+02	2.689219e+02	2.661721e+02	2.647256e+02	2.633895e+02	2.630324e+02	2.646783e+02	2.660057e+02	2.677531e+02	2.695638e+02	2.715123e+02	2.740833e+02	2.761916e+02	2.779344e+02	2.798770e+02	2.813771e+02	2.823747e+02	2.833211e+02	2.837222e+02	2.839006e+02	2.839973e+02	2.835725e+02	2.831319e+02	2.826001e+02	2.819354e+02	2.814334e+02	2.810835e+02	2.808525e+02	2.808211e+02	2.811530e+02	2.814144e+02	2.816243e+02	2.817775e+02	2.814955e+02	2.810089e+02	2.805323e+02	2.785668e+02	2.729078e+02	2.458747e+02	2.185291e+02	2.109786e+02	2.156883e+02	2.228122e+02	2.320184e+02	2.392287e+02	2.477696e+02	2.588070e+02	2.653265e+02	2.700212e+02	2.755312e+02	2.794656e+02	2.818135e+02	2.843320e+02	2.863534e+02	2.867128e+02	2.870158e+02	2.871430e+02	2.866151e+02	2.860675e+02	2.851322e+02	2.841650e+02	2.836194e+02	2.836300e+02	2.842387e+02	2.857154e+02	2.883965e+02	2.913710e+02	2.948410e+02	2.980948e+02	3.006101e+02	3.021743e+02	
SCALARS Mach double 1
LOOKUP_TABLE default
3.970488e-01	6.575116e-01	6.973348e-01	7.743374e-01	8.245935e-01	8.565931e-01	8.797189e-01	9.080140e-01	9.498244e-01	1.002098e+00	1.067161e+00	1.149261e+00	1.235289e+00	1.350076e+00	1.439487e+00	1.375838e+00	1.088240e+00	7.736706e-01	6.772930e-01	6.574095e-01	6.496868e-01	6.448395e-01	6.445555e-01	6.436461e-01	6.457019e-01	6.472666e-01	6.476010e-01	6.476157e-01	6.467722e-01	6.464001e-01	6.457738e-01	6.458556e-01	6.469736e-01	6.475086e-01	6.562993e-01	6.700893e-01	6.842417e-01	7.102268e-01	7.408832e-01	7.740566e-01	8.175652e-01	8.652106e-01	9.131526e-01	9.738026e-01	1.030604e+00	1.078563e+00	1.143623e+00	1.195534e+00	1.236793e+00	1.275690e+00	1.299960e+00	1.331432e+00	1.356154e+00	1.375929e+00	1.396478e+00	1.414689e+00	1.448011e+00	1.479978e+00	1.522590e+00	1.579192e+00	1.608735e+00	1.502722e+00	1.035436e+00	6.126274e-01	5.031131e-01	4.439352e-01	3.935054e-01	3.525302e-01	3.148002e-01	2.883142e-01	2.676394e-01	2.505851e-01	2.512561e-01	2.561663e-01	2.662843e-01	2.830144e-01	2.996062e-01	3.180967e-01	3.341460e-01	3.405761e-01	3.444601e-01	3.443838e-01	3.406749e-01	3.341022e-01	3.245675e-01	3.162340e-01	3.080039e-01	2.989052e-01	2.904087e-01	2.812338e-01	2.718854e-01	2.634173e-01	2.548398e-01	2.460526e-01	2.378845e-01	2.309209e-01	2.232705e-01	2.211643e-01	2.028891e-01	3.566950e-01	5.504784e-01	4.585018e-01	4.778238e-01	4.780915e-01	4.735597e-01	4.692126e-01	4.657595e-01	4.609723e-01	4.569288e-01	4.531244e-01	4.485177e-01	4.439265e-01	4.370351e-01	4.325043e-01	4.255840e-01	4.182234e-01	4.184370e-01	4.174943e-01	4.226754e-01	4.293443e-01	4.386341e-01	4.666581e-01	5.008761e-01	5.376957e-01	5.863945e-01	6.319063e-01	6.894437e-01	7.483238e-01	7.864081e-01	8.224856e-01	8.411294e-01	8.581678e-01	8.626928e-01	8.417357e-01	8.246405e-01	8.018500e-01	7.778558e-01	7.515549e-01	7.159847e-01	6.859697e-01	6.604924e-01	6.312830e-01	6.080611e-01	5.922559e-01	5.769690e-01	5.703976e-01	5.674572e-01	5.658575e-01	5.728565e-01	5.800485e-01	5.886418e-01	5.992535e-01	6.071767e-01	6.126552e-01	6.162527e-01	6.167405e-01	6.115689e-01	6.074743e-01	6.041718e-01	6.017538e-01	6.062008e-01	6.138179e-01	6.212150e-01	6.510838e-01	7.323788e-01	1.070087e+00	1.383492e+00	1.470201e+00	1.416020e+00	1.334594e+00	1.229665e+00	1.147084e+00	1.047897e+00	9.154360e-01	8.334102e-01	7.717284e-01	6.954614e-01	6.375461e-01	6.011838e-01	5.602978e-01	5.257577e-01	5.194297e-01	5.140464e-01	5.117728e-01	5.211565e-01	5.307483e-01	5.468271e-01	5.630768e-01	5.720873e-01	5.719131e-01	5.618516e-01	5.368461e-01	4.889176e-01	4.307637e-01	3.528866e-01	2.619017e-01	1.618088e-01	1.282106e-02	
SCALARS Pressure_Coefficient double 1
LOOKUP_TABLE default