# vtk DataFile Version 3.0
vtk output
ASCII
DATASET UNSTRUCTURED_GRID
POINTS 1825 double
1.000000e+02	0.000000e+00	0.0	9.917900e+01	1.278772e+01	0.0	9.672949e+01	2.536546e+01	0.0	9.269168e+01	3.752670e+01	0.0	8.713187e+01	4.907176e+01	0.0	8.014136e+01	5.981105e+01	0.0	7.183494e+01	6.956826e+01	0.0	6.234898e+01	7.818315e+01	0.0	5.183926e+01	8.551428e+01	0.0	4.047833e+01	9.144126e+01	0.0	2.845276e+01	9.586679e+01	0.0	1.595999e+01	9.871818e+01	0.0	3.205158e+00	9.994862e+01	0.0	-9.602303e+00	9.953791e+01	0.0	-2.225209e+01	9.749279e+01	0.0	-3.453651e+01	9.384684e+01	0.0	-4.625383e+01	8.865993e+01	0.0	-5.721167e+01	8.201723e+01	0.0	-6.723009e+01	7.402780e+01	0.0	-7.614460e+01	6.482284e+01	0.0	-8.380881e+01	5.455349e+01	0.0	-9.009689e+01	4.338837e+01	0.0	-9.490557e+01	3.151082e+01	0.0	-9.815592e+01	1.911586e+01	0.0	-9.979454e+01	6.407022e+00	0.0	-9.979454e+01	-6.407022e+00	0.0	-9.815592e+01	-1.911586e+01	0.0	-9.490557e+01	-3.151082e+01	0.0	-9.009689e+01	-4.338837e+01	0.0	-8.380881e+01	-5.455349e+01	0.0	-7.614460e+01	-6.482284e+01	0.0	-6.723009e+01	-7.402780e+01	0.0	-5.721167e+01	-8.201723e+01	0.0	-4.625383e+01	-8.865993e+01	0.0	-3.453651e+01	-9.384684e+01	0.0	-2.225209e+01	-9.749279e+01	0.0	-9.602303e+00	-9.953791e+01	0.0	3.205158e+00	-9.994862e+01	0.0	1.595999e+01	-9.871818e+01	0.0	2.845276e+01	-9.586679e+01	0.0	4.047833e+01	-9.144126e+01	0.0	5.183926e+01	-8.551428e+01	0.0	6.234898e+01	-7.818315e+01	0.0	7.183494e+01	-6.956826e+01	0.0	8.014136e+01	-5.981105e+01	0.0	8.713187e+01	-4.907176e+01	0.0	9.269168e+01	-3.752670e+01	0.0	9.672949e+01	-2.536546e+01	0.0	9.917900e+01	-1.278772e+01	0.0	0.000000e+00	0.000000e+00	0.0	3.234576e-03	3.812810e-03	0.0	6.681067e-03	7.663847e-03	0.0	1.121855e-02	1.055236e-02	0.0	1.599723e-02	1.340351e-02	0.0	2.131746e-02	1.565595e-02	0.0	2.686036e-02	1.790408e-02	0.0	3.271739e-02	1.992243e-02	0.0	3.878320e-02	2.199687e-02	0.0	4.506944e-02	2.410691e-02	0.0	5.153627e-02	2.637904e-02	0.0	5.817194e-02	2.885853e-02	0.0	6.491050e-02	3.169631e-02	0.0	7.178195e-02	3.482936e-02	0.0	7.872033e-02	3.836905e-02	0.0	8.583065e-02	4.210813e-02	0.0	9.335849e-02	4.555189e-02	0.0	1.011766e-01	4.892337e-02	0.0	1.096255e-01	5.129344e-02	0.0	1.183732e-01	5.341093e-02	0.0	1.276210e-01	5.415457e-02	0.0	1.371211e-01	5.488716e-02	0.0	1.468963e-01	5.450367e-02	0.0	1.569233e-01	5.411029e-02	0.0	1.671853e-01	5.343696e-02	0.0	1.776876e-01	5.260267e-02	0.0	1.884380e-01	5.177067e-02	0.0	1.994409e-01	5.104088e-02	0.0	2.106843e-01	5.029514e-02	0.0	2.221753e-01	4.975885e-02	0.0	2.339051e-01	4.935383e-02	0.0	2.458616e-01	4.895406e-02	0.0	2.580423e-01	4.869694e-02	0.0	2.704362e-01	4.843533e-02	0.0	2.830348e-01	4.813221e-02	0.0	2.958300e-01	4.779434e-02	0.0	3.088131e-01	4.744360e-02	0.0	3.219681e-01	4.689205e-02	0.0	3.352914e-01	4.633344e-02	0.0	3.487737e-01	4.581655e-02	0.0	3.624035e-01	4.533683e-02	0.0	3.761674e-01	4.487042e-02	0.0	3.900606e-01	4.489695e-02	0.0	4.040620e-01	4.492370e-02	0.0	4.181410e-01	4.544837e-02	0.0	4.322866e-01	4.638743e-02	0.0	4.464945e-01	4.737551e-02	0.0	4.606915e-01	4.904868e-02	0.0	4.749256e-01	5.072621e-02	0.0	4.891809e-01	5.241557e-02	0.0	5.034428e-01	5.411286e-02	0.0	5.177020e-01	5.575884e-02	0.0	5.320008e-01	5.674203e-02	0.0	5.462624e-01	5.772267e-02	0.0	5.604911e-01	5.802965e-02	0.0	5.746668e-01	5.785898e-02	0.0	5.887595e-01	5.762472e-02	0.0	6.027360e-01	5.678946e-02	0.0	6.166045e-01	5.596064e-02	0.0	6.303511e-01	5.512386e-02	0.0	6.439635e-01	5.428493e-02	0.0	6.574322e-01	5.350058e-02	0.0	6.707643e-01	5.322828e-02	0.0	6.839282e-01	5.295942e-02	0.0	6.969146e-01	5.290822e-02	0.0	7.097137e-01	5.302300e-02	0.0	7.223155e-01	5.312253e-02	0.0	7.347113e-01	5.297559e-02	0.0	7.468939e-01	5.283118e-02	0.0	7.588256e-01	5.211215e-02	0.0	7.705104e-01	5.100765e-02	0.0	7.819198e-01	4.963956e-02	0.0	7.929308e-01	4.724626e-02	0.0	8.037063e-01	4.490414e-02	0.0	8.140508e-01	4.187194e-02	0.0	8.241380e-01	3.883178e-02	0.0	8.339576e-01	3.577094e-02	0.0	8.435189e-01	3.272481e-02	0.0	8.528726e-01	2.986634e-02	0.0	8.620756e-01	2.739107e-02	0.0	8.710349e-01	2.498138e-02	0.0	8.798378e-01	2.299448e-02	0.0	8.884128e-01	2.113127e-02	0.0	8.967610e-01	1.940432e-02	0.0	9.048990e-01	1.788605e-02	0.0	9.127963e-01	1.641270e-02	0.0	9.204655e-01	1.503947e-02	0.0	9.279014e-01	1.372018e-02	0.0	9.351031e-01	1.243163e-02	0.0	9.420728e-01	1.116544e-02	0.0	9.488177e-01	9.939654e-03	0.0	9.553362e-01	8.723887e-03	0.0	9.616383e-01	7.548483e-03	0.0	9.677240e-01	6.389699e-03	0.0	9.736015e-01	5.266360e-03	0.0	9.792718e-01	4.159545e-03	0.0	9.847426e-01	3.082718e-03	0.0	9.900171e-01	2.028190e-03	0.0	9.950997e-01	9.931126e-04	0.0	1.000000e+00	0.000000e+00	0.0	9.950048e-01	2.186794e-04	0.0	9.898196e-01	4.073273e-04	0.0	9.844391e-01	5.473013e-04	0.0	9.788588e-01	6.446492e-04	0.0	9.730744e-01	7.185786e-04	0.0	9.670807e-01	7.370225e-04	0.0	9.608737e-01	7.328551e-04	0.0	9.544487e-01	6.650130e-04	0.0	9.478012e-01	5.805970e-04	0.0	9.409281e-01	4.023534e-04	0.0	9.338238e-01	2.181111e-04	0.0	9.264878e-01	-7.657672e-05	0.0	9.189136e-01	-4.033001e-04	0.0	9.111020e-01	-8.266747e-04	0.0	9.030530e-01	-1.400767e-03	0.0	8.947559e-01	-1.992544e-03	0.0	8.862418e-01	-2.955217e-03	0.0	8.774798e-01	-3.985239e-03	0.0	8.685031e-01	-5.300314e-03	0.0	8.593226e-01	-6.980808e-03	0.0	8.498977e-01	-8.744189e-03	0.0	8.403577e-01	-1.118192e-02	0.0	8.305691e-01	-1.368314e-02	0.0	8.206044e-01	-1.650828e-02	0.0	8.104197e-01	-1.949138e-02	0.0	7.999893e-01	-2.253158e-02	0.0	7.893148e-01	-2.562461e-02	0.0	7.783950e-01	-2.875091e-02	0.0	7.671605e-01	-3.164194e-02	0.0	7.556970e-01	-3.459191e-02	0.0	7.439604e-01	-3.739650e-02	0.0	7.319804e-01	-4.015143e-02	0.0	7.197840e-01	-4.293572e-02	0.0	7.073586e-01	-4.565832e-02	0.0	6.947364e-01	-4.842405e-02	0.0	6.819300e-01	-5.124728e-02	0.0	6.689477e-01	-5.412079e-02	0.0	6.557971e-01	-5.702994e-02	0.0	6.424814e-01	-5.993684e-02	0.0	6.290199e-01	-6.287554e-02	0.0	6.153787e-01	-6.561318e-02	0.0	6.015687e-01	-6.813998e-02	0.0	5.876500e-01	-7.068667e-02	0.0	5.734976e-01	-7.231691e-02	0.0	5.592607e-01	-7.393995e-02	0.0	5.449110e-01	-7.490341e-02	0.0	5.304640e-01	-7.521430e-02	0.0	5.159792e-01	-7.548139e-02	0.0	5.014802e-01	-7.488014e-02	0.0	4.869734e-01	-7.427856e-02	0.0	4.724814e-01	-7.353687e-02	0.0	4.580169e-01	-7.270104e-02	0.0	4.435881e-01	-7.192589e-02	0.0	4.291970e-01	-7.150903e-02	0.0	4.148738e-01	-7.109414e-02	0.0	4.006292e-01	-7.100370e-02	0.0	3.864795e-01	-7.105941e-02	0.0	3.724404e-01	-7.108966e-02	0.0	3.585253e-01	-7.103699e-02	0.0	3.447469e-01	-7.098483e-02	0.0	3.311344e-01	-7.037944e-02	0.0	3.176875e-01	-6.961579e-02	0.0	3.044410e-01	-6.856280e-02	0.0	2.914443e-01	-6.681302e-02	0.0	2.786382e-01	-6.508890e-02	0.0	2.660641e-01	-6.316989e-02	0.0	2.537059e-01	-6.122531e-02	0.0	2.415389e-01	-5.949889e-02	0.0	2.295322e-01	-5.828411e-02	0.0	2.177554e-01	-5.709257e-02	0.0	2.061744e-01	-5.714129e-02	0.0	1.948226e-01	-5.754979e-02	0.0	1.837448e-01	-5.826860e-02	0.0	1.729899e-01	-5.980801e-02	0.0	1.624844e-01	-6.131173e-02	0.0	1.522126e-01	-6.264820e-02	0.0	1.421888e-01	-6.391104e-02	0.0	1.324014e-01	-6.469148e-02	0.0	1.228215e-01	-6.425843e-02	0.0	1.134980e-01	-6.383697e-02	0.0	1.047840e-01	-6.146038e-02	0.0	9.638469e-02	-5.876151e-02	0.0	8.842736e-02	-5.566648e-02	0.0	8.109564e-02	-5.173749e-02	0.0	7.398302e-02	-4.792591e-02	0.0	6.732129e-02	-4.383230e-02	0.0	6.094621e-02	-3.972951e-02	0.0	5.475629e-02	-3.578143e-02	0.0	4.869920e-02	-3.206430e-02	0.0	4.283931e-02	-2.846820e-02	0.0	3.701483e-02	-2.526434e-02	0.0	3.137205e-02	-2.219116e-02	0.0	2.585076e-02	-1.935507e-02	0.0	2.053492e-02	-1.658727e-02	0.0	1.546172e-02	-1.380730e-02	0.0	1.071901e-02	-1.087359e-02	0.0	6.304616e-03	-7.808014e-03	0.0	2.461335e-03	-4.322140e-03	0.0	3.154748e+00	3.595322e+00	0.0	1.978951e+00	2.822233e+00	0.0	2.728606e+00	2.026700e+00	0.0	8.798891e+01	2.767068e+01	0.0	8.294603e+01	3.583047e+01	0.0	8.076992e+01	2.696138e+01	0.0	7.277714e+01	-1.203683e+01	0.0	7.489887e+01	-2.433326e+01	0.0	8.611910e+01	-1.545834e+01	0.0	9.126358e+01	-4.563152e+00	0.0	2.636845e+01	2.292150e+01	0.0	3.760231e+01	2.680572e+01	0.0	2.912977e+01	3.358760e+01	0.0	7.504458e+01	1.878001e+01	0.0	7.419633e+01	3.151887e+01	0.0	6.830685e+01	-3.565927e+01	0.0	7.536050e+01	-4.373435e+01	0.0	8.091907e+01	-3.614274e+01	0.0	8.627164e+01	-2.776530e+01	0.0	5.530677e+01	2.278573e+01	0.0	4.790433e+01	2.983144e+01	0.0	4.525890e+01	1.991436e+01	0.0	5.685058e+01	-6.340325e+01	0.0	5.556321e+01	-5.322852e+01	0.0	4.871913e+01	-6.426257e+01	0.0	6.892685e+01	5.958509e+01	0.0	7.280496e+01	5.041548e+01	0.0	5.999741e+01	6.473450e+01	0.0	4.578256e+01	-7.384994e+01	0.0	5.457495e+01	-7.225135e+01	0.0	6.609861e+01	-4.657471e+01	0.0	4.872607e+01	7.154542e+01	0.0	4.042695e+01	6.298808e+01	0.0	3.132009e+01	6.131278e+01	0.0	3.683622e+01	5.418560e+01	0.0	6.291128e+01	-6.722266e+01	0.0	3.067778e+01	8.604135e+01	0.0	3.987681e+01	8.041909e+01	0.0	3.728293e+01	-6.721844e+01	0.0	2.629346e+01	-7.558143e+01	0.0	3.844755e+01	-8.001005e+01	0.0	5.842328e+00	4.670303e+01	0.0	-4.011632e+00	4.295381e+01	0.0	4.394618e+00	3.671343e+01	0.0	8.076244e-01	-2.831334e-02	0.0	8.159792e-01	-2.492147e-02	0.0	3.889516e-01	1.625205e-01	0.0	3.909955e-01	2.267190e-01	0.0	3.440537e-01	1.834366e-01	0.0	5.570854e-01	6.728253e-02	0.0	5.486089e-01	7.291594e-02	0.0	5.060934e-01	6.374450e-02	0.0	5.144690e-01	7.010132e-02	0.0	5.455241e-01	1.001709e-01	0.0	5.273201e-01	9.358617e-02	0.0	5.395420e-01	8.274594e-02	0.0	4.860404e-01	7.677693e-02	0.0	4.793471e-01	9.095439e-02	0.0	4.695440e-01	7.837492e-02	0.0	4.612160e-01	6.433169e-02	0.0	4.772411e-01	6.297815e-02	0.0	5.697408e-01	7.001804e-02	0.0	4.685185e-01	5.677118e-02	0.0	5.572999e-01	1.230712e-01	0.0	5.306537e-01	1.147423e-01	0.0	4.116785e-01	1.046688e-01	0.0	4.114034e-01	8.276234e-02	0.0	4.277409e-01	8.948942e-02	0.0	2.384112e-01	1.916921e-01	0.0	2.659231e-01	2.462289e-01	0.0	1.981621e-01	2.342591e-01	0.0	5.547366e-01	8.631900e-02	0.0	5.694454e-01	8.457527e-02	0.0	5.664514e-01	1.014546e-01	0.0	4.376536e-01	6.073774e-02	0.0	4.507075e-01	5.761902e-02	0.0	9.265577e-01	2.096259e-02	0.0	9.183379e-01	2.172329e-02	0.0	9.331
[...]
POINT_DATA 1825

SCALARS Density double 1
LOOKUP_TABLE default
1.291414e+00	1.291531e+00	1.292016e+00	1.292234e+00	1.292134e+00	1.292065e+00	1.292043e+00	1.292006e+00	1.291955e+00	1.291907e+00	1.291871e+00	1.291859e+00	1.291873e+00	1.291920e+00	1.291992e+00	1.292064e+00	1.292130e+00	1.292181e+00	1.292219e+00	1.292247e+00	1.292267e+00	1.292282e+00	1.292293e+00	1.292303e+00	1.292311e+00	1.292320e+00	1.292329e+00	1.292341e+00	1.292355e+00	1.292373e+00	1.292398e+00	1.292429e+00	1.292468e+00	1.292515e+00	1.292573e+00	1.292641e+00	1.292703e+00	1.292750e+00	1.292755e+00	1.292729e+00	1.292681e+00	1.292620e+00	1.292560e+00	1.292497e+00	1.292432e+00	1.292382e+00	1.292409e+00	1.292289e+00	1.291837e+00	1.546175e+00	1.200610e+00	1.210557e+00	1.150622e+00	1.147413e+00	1.164414e+00	1.202960e+00	1.227741e+00	1.260187e+00	1.279796e+00	1.295072e+00	1.303725e+00	1.299438e+00	1.279834e+00	1.237187e+00	1.145427e+00	1.057392e+00	9.363171e-01	8.180972e-01	7.030239e-01	6.117396e-01	5.568506e-01	5.102062e-01	5.000554e-01	4.899936e-01	4.948693e-01	5.125227e-01	5.286096e-01	5.506534e-01	5.777856e-01	5.945197e-01	6.132734e-01	6.251193e-01	6.306577e-01	6.230964e-01	6.713929e-01	8.696535e-01	1.151159e+00	1.212855e+00	1.203686e+00	1.209018e+00	1.227842e+00	1.232800e+00	1.234814e+00	1.240591e+00	1.227529e+00	1.220498e+00	1.203485e+00	1.167522e+00	1.142890e+00	1.112000e+00	1.062523e+00	1.027304e+00	1.001416e+00	9.725963e-01	9.921506e-01	1.015191e+00	1.046807e+00	1.090542e+00	1.111569e+00	1.128072e+00	1.149500e+00	1.149859e+00	1.135800e+00	1.125995e+00	1.101944e+00	1.061275e+00	1.028309e+00	9.818941e-01	9.297259e-01	9.104443e-01	8.964751e-01	9.478911e-01	1.047262e+00	1.107674e+00	1.163544e+00	1.197039e+00	1.227998e+00	1.257321e+00	1.267416e+00	1.277434e+00	1.285050e+00	1.281619e+00	1.286529e+00	1.285815e+00	1.283412e+00	1.285273e+00	1.284689e+00	1.285835e+00	1.288876e+00	1.291964e+00	1.295899e+00	1.300704e+00	1.305735e+00	1.311499e+00	1.318727e+00	1.326724e+00	1.338393e+00	1.365087e+00	1.332104e+00	1.410443e+00	1.383786e+00	1.387375e+00	1.388974e+00	1.390230e+00	1.392437e+00	1.393565e+00	1.396169e+00	1.397301e+00	1.399442e+00	1.401763e+00	1.403240e+00	1.408005e+00	1.407829e+00	1.414079e+00	1.415597e+00	1.415089e+00	1.419304e+00	1.413240e+00	1.416260e+00	1.410579e+00	1.398043e+00	1.389887e+00	1.372554e+00	1.357004e+00	1.341284e+00	1.319257e+00	1.304296e+00	1.291940e+00	1.278243e+00	1.271897e+00	1.262613e+00	1.254541e+00	1.248812e+00	1.239137e+00	1.228105e+00	1.213281e+00	1.196586e+00	1.169662e+00	1.141538e+00	1.117458e+00	1.039059e+00	9.451075e-01	8.921024e-01	8.883273e-01	9.400361e-01	9.747886e-01	1.025589e+00	1.086217e+00	1.117883e+00	1.152528e+00	1.184106e+00	1.198515e+00	1.207124e+00	1.211271e+00	1.198838e+00	1.186248e+00	1.173322e+00	1.147178e+00	1.134556e+00	1.135879e+00	1.130307e+00	1.157992e+00	1.193793e+00	1.221931e+00	1.258565e+00	1.291878e+00	1.305876e+00	1.333256e+00	1.345074e+00	1.330263e+00	1.330461e+00	1.309436e+00	1.269316e+00	1.237864e+00	1.119927e+00	7.988792e-01	7.161653e-01	7.337578e-01	8.497849e-01	1.018964e+00	1.067844e+00	1.178785e+00	1.274535e+00	1.325697e+00	1.392044e+00	1.438254e+00	1.468218e+00	1.497121e+00	1.516461e+00	1.528464e+00	1.541863e+00	1.550134e+00	1.563210e+00	1.579859e+00	1.603535e+00	1.612016e+00	1.706007e+00	1.286208e+00	1.280372e+00	1.290169e+00	1.292118e+00	1.292138e+00	1.292023e+00	1.292097e+00	1.292336e+00	1.292097e+00	1.291707e+00	1.291770e+00	1.291960e+00	1.291784e+00	1.291982e+00	1.292118e+00	1.292394e+00	1.292388e+00	1.292350e+00	1.292335e+00	1.292061e+00	1.292024e+00	1.292014e+00	1.292539e+00	1.292505e+00	1.292589e+00	1.292028e+00	1.292056e+00	1.291994e+00	1.292629e+00	1.292577e+00	1.292422e+00	1.291936e+00	1.291881e+00	1.291795e+00	1.291836e+00	1.292523e+00	1.291857e+00	1.291894e+00	1.292677e+00	1.292757e+00	1.292683e+00	1.291385e+00	1.291358e+00	1.291147e+00	1.354498e+00	1.366484e+00	1.216143e+00	1.134140e+00	1.006012e+00	9.983060e-01	1.020051e+00	1.106953e+00	1.087462e+00	1.055465e+00	1.075629e+00	1.047799e+00	1.147215e+00	1.154689e+00	1.171954e+00	1.193426e+00	1.165714e+00	1.005266e+00	1.182603e+00	1.064974e+00	1.084156e+00	1.190547e+00	1.211643e+00	1.198875e+00	7.709998e-01	8.662293e-01	9.326593e-01	1.031879e+00	1.026391e+00	1.043209e+00	1.217724e+00	1.210169e+00	1.285120e+00	1.284354e+00	1.284802e+00	1.284135e+00	1.285684e+00	8.746214e-01	7.754918e-01	7.598553e-01	1.054032e+00	1.107662e+00	1.002476e+00	6.511163e-01	1.019582e+00	7.074274e-01	1.205928e+00	1.197881e+00	1.283579e+00	1.237615e+00	1.230866e+00	1.214481e+00	1.037138e+00	1.060191e+00	1.042052e+00	1.228613e+00	1.225382e+00	1.229478e+00	1.232791e+00	1.224696e+00	9.376317e-01	9.750740e-01	1.173260e+00	1.189790e+00	1.198491e+00	1.255874e+00	1.226576e+00	9.358800e-01	9.540363e-01	1.397158e+00	1.393724e+00	1.394927e+00	1.395607e+00	1.397684e+00	1.178035e+00	1.184278e+00	1.211279e+00	1.095289e+00	1.130736e+00	1.405014e+00	1.404371e+00	1.407378e+00	1.385220e+00	1.404130e+00	1.399114e+00	1.576848e+00	1.599211e+00	1.583433e+00	1.353467e+00	1.368484e+00	1.298162e+00	1.304885e+00	1.318387e+00	1.374072e+00	1.357399e+00	1.357542e+00	1.291615e+00	1.327583e+00	1.316054e+00	1.326772e+00	1.403871e+00	1.411014e+00	1.408389e+00	1.405442e+00	1.265468e+00	1.414765e+00	1.415287e+00	1.416034e+00	1.415926e+00	1.416328e+00	1.415774e+00	1.259772e+00	1.396132e+00	1.412848e+00	1.412739e+00	1.408850e+00	1.402542e+00	1.402715e+00	1.253307e+00	1.400997e+00	1.251569e+00	1.263912e+00	1.250989e+00	1.230255e+00	1.244115e+00	1.225187e+00	1.239463e+00	1.210548e+00	1.206630e+00	1.230188e+00	1.249504e+00	1.135468e+00	1.126627e+00	1.189930e+00	9.919641e-01	1.044916e+00	9.716314e-01	9.013535e-01	9.301960e-01	9.996498e-01	1.300761e+00	1.311898e+00	1.312581e+00	9.513549e-01	9.250924e-01	1.135584e+00	1.158450e+00	1.162002e+00	1.082861e+00	1.104464e+00	9.872367e-01	1.149406e+00	1.125406e+00	1.131318e+00	1.136239e+00	1.099689e+00	1.075947e+00	1.107185e+00	1.290294e+00	1.291554e+00	1.291232e+00	8.493681e-01	9.657662e-01	9.224718e-01	1.197370e+00	1.118410e+00	1.191621e+00	7.167488e-01	7.363244e-01	6.275704e-01	1.065555e+00	1.034710e+00	1.220941e+00	1.267120e+00	1.233931e+00	1.260648e+00	1.248678e+00	1.235289e+00	1.204259e+00	1.185324e+00	1.202982e+00	1.290163e+00	1.288622e+00	1.139043e+00	1.169409e+00	1.210863e+00	1.222960e+00	1.204761e+00	1.292771e+00	1.292729e+00	1.213147e+00	1.214344e+00	1.305166e+00	1.288662e+00	1.286507e+00	1.189952e+00	1.203478e+00	1.288672e+00	1.287414e+00	1.290241e+00	1.616993e+00	1.637332e+00	5.927668e-01	5.844575e-01	6.829299e-01	1.187491e+00	1.240428e+00	1.206864e+00	1.645273e+00	1.623792e+00	1.451062e+00	1.476757e+00	1.446186e+00	1.606838e+00	1.597442e+00	1.381464e+00	1.378788e+00	1.407659e+00	1.160913e+00	1.298168e+00	1.296083e+00	1.313277e+00	1.257236e+00	1.280466e+00	1.255275e+00	1.306977e+00	1.324276e+00	1.309410e+00	1.598094e+00	1.580165e+00	1.302072e+00	1.306814e+00	1.309028e+00	1.554098e+00	1.563827e+00	1.542643e+00	1.297893e+00	1.296428e+00	1.294916e+00	1.289764e+00	1.292637e+00	1.300665e+00	1.290063e+00	1.275491e+00	1.280405e+00	1.280656e+00	1.305297e+00	1.304193e+00	1.309239e+00	1.300790e+00	1.300917e+00	1.279667e+00	1.313038e+00	1.276750e+00	1.269990e+00	1.115607e+00	1.042161e+00	1.106768e+00	1.314787e+00	1.255407e+00	1.263449e+00	9.824512e-01	8.335659e-01	1.004300e+00	1.312515e+00	1.313820e+00	1.294367e+00	1.350134e+00	1.370139e+00	1.403514e+00	1.186226e+00	1.306469e+00	1.308600e+00	1.311509e+00	1.335431e+00	1.328051e+00	1.326498e+00	1.326095e+00	1.299540e+00	1.263956e+00	1.188078e+00	1.164981e+00	1.185508e+00	1.325277e+00	1.312404e+00	1.337892e+00	1.339968e+00	1.201418e+00	1.211380e+00	1.201604e+00	1.285763e+00	1.210068e+00	1.205306e+00	1.196374e+00	6.256004e-01	6.298782e-01	6.264184e-01	6.377015e-01	6.569617e-01	1.176510e+00	1.217152e+00	6.287090e-01	6.164034e-01	1.208752e+00	1.218300e+00	1.189888e+00	1.215596e+00	1.204650e+00	1.299429e+00	1.299468e+00	1.302383e+00	1.332669e+00	1.298818e+00	1.299327e+00	1.300234e+00	1.296478e+00	1.297093e+00	1.292788e+00	1.292747e+00	1.292715e+00	1.293741e+00	1.294237e+00	1.293738e+00	1.448525e+00	1.424748e+00	1.409315e+00	1.292622e+00	1.292621e+00	1.292699e+00	1.297024e+00	1.294963e+00	1.295326e+00	1.292853e+00	1.292832e+00	1.292906e+00	1.522572e+00	1.293434e+00	1.293147e+00	1.293247e+00	1.292657e+00	1.522614e+00	1.539042e+00	1.547791e+00	1.534694e+00	1.292545e+00	1.292482e+00	1.292540e+00	1.319071e+00	1.331923e+00	1.323924e+00	1.294681e+00	1.295986e+00	1.292249e+00	1.293038e+00	1.292706e+00	1.292866e+00	1.292526e+00	1.292338e+00	1.292353e+00	1.292478e+00	1.292454e+00	1.292422e+00	1.292376e+00	1.292348e+00	1.292351e+00	1.292402e+00	1.292405e+00	1.292368e+00	1.292369e+00	1.292349e+00	1.292329e+00	1.292326e+00	1.292281e+00	1.292297e+00	1.292294e+00	1.292263e+00	1.292235e+00	1.292235e+00	1.292834e+00	1.290841e+00	1.291354e+00	1.294167e+00	1.301829e+00	1.300278e+00	1.291975e+00	1.292181e+00	1.291779e+00	1.292213e+00	1.292232e+00	1.292241e+00	1.292174e+00	1.292112e+00	1.251391e+00	1.267173e+00	1.289225e+00	1.291977e+00	1.292032e+00	5.092769e-01	5.061782e-01	1.291972e+00	1.291913e+00	5.839369e-01	5.318017e-01	5.411596e-01	1.018562e+00	1.291872e+00	1.337714e+00	1.335512e+00	1.375647e+00	1.308139e+00	1.296007e+00	1.303924e+00	1.347450e+00	1.337863e+00	1.325966e+00	1.313628e+00	1.320601e+00	1.286716e+00	1.294371e+00	1.295986e+00	1.080234e+00	1.062487e+00	1.088834e+00	5.977374e-01	5.823561e-01	1.131784e+00	1.135347e+00	1.122448e+00	1.123962e+00	1.115737e+00	1.127683e+00	1.109325e+00	1.096519e+00	1.092864e+00	1.279834e+00	1.275239e+00	1.271662e+00	1.291761e+00	1.291790e+00	1.291831e+00	1.166403e+00	1.154267e+00	1.175181e+00	1.214221e+00	1.200058e+00	1.291787e+00	1.291840e+00	1.261149e+00	1.241629e+00	1.227278e+00	1.249020e+00	1.291346e+00	1.295671e+00	1.286361e+00	1.288690e+00	1.285536e+00	1.292322e+00	1.292360e+00	1.292121e+00	1.291963e+00	1.395779e+00	1.402586e+00	1.402973e+00	1.293441e+00	1.294150e+00	1.293251e+00	1.292694e+00	1.292808e+00	1.292197e+00	1.292687e+00	1.292422e+00	1.292719e+00	1.292763e+00	1.293107e+00	1.293090e+00	1.293008e+00	1.291857e+00	1.291830e+00	1.291814e+00	1.291792e+00	1.291786e+00	1.291617e+00	1.291747e+00	1.291973e+00	1.291795e+00	1.292472e+00	1.292417e+00	1.292463e+00	1.292160e+00	1.291880e+00	1.291977e+00	1.293459e+00	1.292853e+00	1.292008e+00	1.291784e+00	1.291045e+00	1.292269e+00	1.293021e+00	1.293377e+00	1.292163e+00	1.291658e+00	1.289037e+00	1.290016e+00	1.292471e+00	1.292597e+00	1.292502e+00	1.292966e+00	1.293088e+00	1.292532e+00	1.292414e+00	1.292422e+00	1.292292e+00	1.292286e+00	1.292258e+00	1.292202e+00	1.291787e+00	1.291704e+00	1.291537e+00	1.291670e+00	1.292960e+00	1.292861e+00	1.292087e+00	1.292052e+00	1.291983e+00	1.291787e+00	1.291875e+00	1.291923e+00	1.291972e+00	1.291759e+00	1.291688e+00	1.292286e+00	1.292379e+00	1.292544e+00	1.292708e+00	1.292640e+00	1.292582e+00	1.292512e+00	1.292000e+00	1.292068e+00	1.291895e+00	1.291921e+00	1.292397e+00	1.317056e+00	1.326253e+00	1.316567e+00	1.301660e+00	1.303594e+00	1.291900e+00	1.292326e+00	1.293392e+00	1.292819e+00	1.292895e+00	1.292035e+00	1.291798e+00	1.291968e+00	1.292042e+00	1.292432e+00	1.292453e+00	1.293969e+00	1.295574e+00	1.293483e+00	1.293776e+00	1.292767e+00	1.291848e+00	1.292880e+00	1.294434e+00	1.294188e+00	1.292206e+00	1.292340e+00	1.292612e+00	1.292643e+00	1.292439e+00	1.291822e+00	1.291757e+00	1.292209e+00	1.292330e+00	1.292448e+00	1.292402e+00	1.292154e+00	1.292777e+00	1.291728e+00	1.292777e+00	1.291816e+00	1.291850e+00	1.291766e+00	1.292807e+00	1.292065e+00	1.292386e+00	1.292433e+00	1.292499e+00	1.292712e+00	1.292868e+00	1.291407e+00	1.292515e+00	1.293101e+00	1.292684e+00	1.292986e+00	1.291712e+00	1.291692e+00	1.291552e+00	1.292048e+00	1.291797e+00	1.292573e+00	1.292719e+00	1.292610e+00	1.291376e+00	1.291856e+00	1.291856e+00	1.291906e+00	1.291125e+00	1.290819e+00	1.290734e+00	1.291568e+00	1.292950e+00	1.292801e+00	1.292586e+00	1.292494e+00	1.291044e+00	1.268915e+00	1.292473e+00	1.292530e+00	1.292118e+00	1.291913e+00	1.291683e+00	1.290962e+00	1.292826e+00	1.292859e+00	1.291925e+00	1.292756e+00	1.292381e+00	1.292149e+00	1.291499e+00	1.292069e+00	1.292475e+00	1.292311e+00	1.292188e+00	1.292517e+00	1.292739e+00	1.391270e+00	1.390751e+00	1.388884e+00	1.293857e+00	1.291480e+00	1.290911e+00	1.291590e+00	1.292083e+00	1.291763e+00	1.291635e+00	1.290053e+00	1.236571e+00	1.226276e+00	1.262928e+00	1.293502e+00	1.292736e+00	1.293006e+00	1.291475e+00	1.306406e+00	1.290113e+00	1.287784e+00	1.288250e+00	1.294576e+00	1.295902e+00	1.295145e+00	1.293729e+00	1.292516e+00	1.290202e+00	1.292670e+00	1.290517e+00	1.290658e+00	1.289012e+00	1.289610e+00	1.275412e+00	1.266455e+00	1.233176e+00	1.289503e+00	1.294180e+00	1.294281e+00	1.289622e+00	1.291569e+00	1.296098e+00	1.298431e+00	1.296985e+00	1.300892e+00	1.294663e+00	5.487570e-01	5.122397e-01	1.284656e+00	1.329633e+00	1.335061e+00	1.291103e+00	1.293868e+00	1.294988e+00	1.300481e+00	1.303436e+00	1.498898e+00	1.510014e+00	1.290100e+00	1.372611e+00	1.364023e+00	1.334643e+00	1.283091e+00	1.291357e+00	1.292088e+00	1.297070e+00	1.315403e+00	1.325247e+00	1.294904e+00	1.296257e+00	1.284651e+00	1.284277e+00	1.392542e+00	1.390672e+00	1.290683e+00	1.296337e+00	1.294143e+00	1.287595e+00	1.279859e+00	1.288291e+00	1.297532e+00	1.297768e+00	1.298560e+00	1.299346e+00	1.289572e+00	1.286136e+00	1.302952e+00	1.200098e+00	1.225151e+00	1.250865e+00	1.251168e+00	1.266606e+00	1.255061e+00	1.185019e+00	1.299008e+00	1.367943e+00	1.297206e+00	1.295440e+00	1.287355e+00	1.277441e+00	1.277592e+00	1.303485e+00	1.302580e+00	1.307204e+00	1.414410e+00	1.302012e+00	1.303426e+00	1.312562e+00	1.299370e+00	1.297684e+00	1.286107e+00	1.293316e+00	1.211768e+00	1.204356e+00	1.207294e+00	1.299804e+00	1.289505e+00	1.296848e+00	1.278128e+00	1.299340e+00	1.329429e+00	1.299709e+00	1.194402e+00	1.221482e+00	8.209193e-01	1.283875e+00	1.258673e+00	1.261487e+00	1.304328e+00	1.284132e+00	1.281817e+00	1.389820e+00	1.301100e+00	1.296848e+00	1.222982e+00	1.279579e+00	1.306414e+00	1.284319e+00	1.276666e+00	1.304024e+00	1.244209e+00	1.195220e+00	1.311602e+00	1.356595e+00	1.339420e+00	1.335658e+00	1.142382e+00	1.304333e+00	1.248359e+00	1.179356e+00	1.285017e+00	9.464034e-01	1.273439e+00	1.340197e+00	1.323581e+00	1.330707e+00	1.322608e+00	1.346744e+00	1.217611e+00	1.180737e+00	1.235448e+00	1.364312e+00	1.364582e+00	1.351815e+00	1.324064e+00	5.983623e-01	6.193683e-01	5.577019e-01	1.279179e+00	1.309035e+00	1.331951e+00	1.320766e+00	1.369059e+00	1.385325e+00	1.392214e+00	1.297692e+00	1.271956e+00	1.346650e+00	1.360693e+00	1.291984e+00	1.297675e+00	1.293757e+00	1.317921e+00	1.336619e+00	1.262594e+00	1.247557e+00	1.150879e+00	1.192178e+00	1.093926e+00	1.344653e+00	1.273555e+00	1.289835e+00	1.249007e+00	1.281573e+00	1.313240e+00	1.414616e+00	1.040327e+00	1.014866e+00	1.005591e+00	1.275117e+00	1.290601e+00	1.298582e+00	1.248959e+00	1.079323e+00	1.027297e+00	1.076386e+00	1.333896e+00	1.295425e+00	1.323691e+00	1.304634e+00	1.389957e+00	1.405896e+00	1.419290e+00	1.520671e+00	1.545984e+00	1.528322e+00	1.318466e+00	1.357953e+00	1.276762e+00	1.282727e+00	1.290219e+00	1.297163e+00	1.176417e+00	1.165342e+00	1.182497e+00	1.329102e+00	1.296697e+00	1.350405e+00	1.297422e+00	1.340915e+00	1.340642e+00	1.331176e+00	1.345170e+00	1.386765e+00	1.182215e+00	1.179365e+00	1.131558e+00	1.095425e+00	1.111989e+00	1.122977e+00	5.494323e-01	5.305138e-01	5.287436e-01	1.267346e+00	1.272342e+00	1.212251e+00	1.109777e+00	1.371006e+00	1.334524e+00	1.368679e+00	1.250850e+00	1.361412e+00	1.345515e+00	1.360528e+00	1.352503e+00	1.629250e+00	1.320197e+00	1.276910e+00	1.149661e+00	1.215095e+00	1.256119e+00	1.263961e+00	1.225584e+00	1.337355e+00	1.350401e+00	1.320174e+00	1.348458e+00	1.339539e+00	1.217896e+00	8.768835e-01	1.177377e+00	1.190858e+00	1.277243e+00	1.270769e+00	1.261068e+00	1.308888e+00	1.260724e+00	9.645317e-01	9.508256e-01	8.456840e-01	1.086480e+00	1.160106e+00	1.294272e+00	1.291101e+00	1.237200e+00	1.237410e+00	1.180642e+00	1.279879e+00	1.304242e+00	1.268633e+00	1.277960e+00	1.279534e+00	1.422551e+00	1.395388e+00	1.327714e+00	1.388988e+00	1.364544e+00	1.258246e+00	1.135237e+00	1.159327e+00	1.131058e+00	1.142654e+00	1.355291e+00	1.413975e+00	1.414741e+00	1.361007e+00	1.301993e+00	1.308219e+00	1.268967e+00	1.256694e+00	1.242193e+00	1.188207e+00	1.391544e+00	1.225855e+00	1.322612e+00	1.296211e+00	1.310187e+00	1.191337e+00	1.289698e+00	1.318012e+00	1.262467e+00	1.237238e+00	1.186030e+00	1.297530e+00	1.431243e+00	1.452289e+00	1.130382e+00	1.129666e+00	1.147204e+00	1.161597e+00	1.191399e+00	1.341600e+00	1.333183e+00	1.329309e+00	1.308854e+00	1.233218e+00	1.202753e+00	1.274819e+00	1.328419e+00	6.471084e-01	7.024556e-01	1.393121e+00	1.116233e+00	1.128250e+00	1.056631e+00	1.279264e+00	1.190423e+00	1.152597e+00	1.119679e+00	1.413851e+00	1.283364e+00	1.296731e+00	1.287316e+00	1.293246e+00	1.436653e+00	1.461488e+00	1.469522e+00	1.137932e+00	1.196744e+00	1.153368e+00	1.036576e+00	1.342224e+00	1.331424e+00	1.291961e+00	1.256954e+00	1.264594e+00	1.236981e+00	1.108910e+00	1.238983e+00	1.233258e+00	1.183177e+00	1.214979e+00	1.199455e+00	8.683969e-01	1.188323e+00	1.134758e+00	1.379690e+00	1.140608e+00	1.014437e+00	1.108759e+00	1.269584e+00	1.165264e+00	1.199389e+00	1.310564e+00	1.292147e+00	1.278875e+00	1.272910e+00	8.215138e-01	9.331808e-01	1.367025e+00	1.360450e+00	1.383110e+00	1.391008e+00	1.386891e+00	1.216992e+00	1.215891e+00	1.157861e+00	1.121848e+00	1.205973e+00	8.889877e-01	7.812326e-01	9.240856e-01	1.075587e+00	1.179671e+00	7.432670e-01	7.573721e-01	1.106054e+00	1.101197e+00	1.118468e+00	1.090707e+00	1.318013e+00	1.334154e+00	1.314201e+00	1.010747e+00	9.472963e-01	1.170603e+00	1.185218e+00	1.264632e+00	1.393132e+00	1.283316e+00	1.252103e+00	1.217333e+00	1.068207e+00	1.032094e+00	1.094486e+00	1.107228e+00	1.387721e+00	1.290218e+00	1.234727e+00	1.283662e+00	1.259262e+00	1.221174e+00	1.477944e+00	1.428325e+00	1.126365e+00	1.060364e+00	1.098027e+00	1.025978e+00	1.215091e+00	1.232535e+00	1.105977e+00	1.111864e+00	1.293397e+00	1.298174e+00	1.269895e+00	1.291358e+00	1.271169e+00	1.281925e+00	1.297709e+00	1.351860e+00	1.358403e+00	1.378799e+00	1.388529e+00	1.395722e+00	1.386448e+00	1.213147e+00	1.257525e+00	5.130930e-01	5.261399e-01	5.161210e-01	6.790794e-01	5.881109e-01	6.244656e-01	1.227443e+00	1.520608e+00	1.501978e+00	1.529954e+00	1.379552e+00	1.386348e+00	1.409280e+00	1.124290e+00	9.714560e-01	1.027960e+00	9.848200e-01	1.062900e+00	1.036098e+00	1.093224e+00	1.297370e+00	1.306903e+00	1.287212e+00	1.215425e+00	1.214429e+00	1.205186e+00	1.443762e+00	1.467857e+00	1.089995e+00	1.408278e+00	1.406376e+00	1.265730e+00	1.481844e+00	1.485209e+00	1.461314e+00	1.110930e+00	9.862822e-01	1.022573e+00	1.068928e+00	1.100268e+00	1.139119e+00	1.115716e+00	1.188465e+00	9.541669e-01	1.215105e+00	9.873677e-01	6.611010e-01	1.201815e+00	1.202852e+00	1.282411e+00	1.122363e+00	1.232641e+00	7.748822e-01	1.385215e+00	1.375116e+00	1.375867e+00	1.289491e+00	1.315874e+00	1.305381e+00	1.106712e+00	1.098634e+00	1.337549e+00	1.353862e+00	1.162263e+00	1.262765e+00	1.302999e+00	1.380100e+00	1.174277e+00	1.191546e+00	1.202090e+00	1.247514e+00	1.153809e+00	1.322023e+00	1.187119e+00	5.456104e-01	5.530298e-01	1.044693e+00	1.083409e+00	1.181173e+00	1.485960e+00	1.506037e+00	1.496436e+00	5.963419e-01	1.217648e+00	1.217099e+00	1.217293e+00	1.410539e+00	1.413045e+00	1.414800e+00	1.414545e+00	1.417615e+00	1.458729e+00	1.375599e+00	1.403670e+00	1.287452e+00	1.280453e+00	1.114245e+00	1.067591e+00	9.781245e-01	9.694373e-01	1.039067e+00	1.171721e+00	1.163476e+00	1.295030e+00	1.262616e+00	7.357976e-01	6.417865e-01	1.259467e+00	1.249637e+00	1.266410e+00	1.394258e+00	1.410281e+00	1.413076e+00	8.233469e-01	6.174593e-01	1.514224e+00	1.079309e+00	1.316799e+00	1.125760e+00	1.160682e+00	1.214243e+00	1.152087e+00	1.056799e+00	1.108615e+00	1.112733e+00	1.084260e+00	1.084012e+00	1.396563e+00	1.551124e+00	1.533494e+00	1.520333e+00	1.119861e+00	1.110771e+00	1.072445e+00	1.087992e+00	1.050488e+00	1.487120e+00	1.119683e+00	1.362999e+00	1.223205e+00	1.230277e+00	1.224645e+00	1.383601e+00	1.235882e+00	1.293133e+00	1.305785e+00	1.277168e+00	1.277412