# vtk DataFile Version 3.0
vtk output
ASCII
DATASET UNSTRUCTURED_GRID
POINTS 198 double
0.000000e+00	0.000000e+00	0.0	3.234576e-03	3.812810e-03	0.0	6.681067e-03	7.663847e-03	0.0	1.121855e-02	1.055236e-02	0.0	1.599723e-02	1.340351e-02	0.0	2.131746e-02	1.565595e-02	0.0	2.686036e-02	1.790408e-02	0.0	3.271739e-02	1.992243e-02	0.0	3.878320e-02	2.199687e-02	0.0	4.506944e-02	2.410691e-02	0.0	5.153627e-02	2.637904e-02	0.0	5.817194e-02	2.885853e-02	0.0	6.491050e-02	3.169631e-02	0.0	7.178195e-02	3.482936e-02	0.0	7.872033e-02	3.836905e-02	0.0	8.583065e-02	4.210813e-02	0.0	9.335849e-02	4.555189e-02	0.0	1.011766e-01	4.892337e-02	0.0	1.096255e-01	5.129344e-02	0.0	1.183732e-01	5.341093e-02	0.0	1.276210e-01	5.415457e-02	0.0	1.371211e-01	5.488716e-02	0.0	1.468963e-01	5.450367e-02	0.0	1.569233e-01	5.411029e-02	0.0	1.671853e-01	5.343696e-02	0.0	1.776876e-01	5.260267e-02	0.0	1.884380e-01	5.177067e-02	0.0	1.994409e-01	5.104088e-02	0.0	2.106843e-01	5.029514e-02	0.0	2.221753e-01	4.975885e-02	0.0	2.339051e-01	4.935383e-02	0.0	2.458616e-01	4.895406e-02	0.0	2.580423e-01	4.869694e-02	0.0	2.704362e-01	4.843533e-02	0.0	2.830348e-01	4.813221e-02	0.0	2.958300e-01	4.779434e-02	0.0	3.088131e-01	4.744360e-02	0.0	3.219681e-01	4.689205e-02	0.0	3.352914e-01	4.633344e-02	0.0	3.487737e-01	4.581655e-02	0.0	3.624035e-01	4.533683e-02	0.0	3.761674e-01	4.487042e-02	0.0	3.900606e-01	4.489695e-02	0.0	4.040620e-01	4.492370e-02	0.0	4.181410e-01	4.544837e-02	0.0	4.322866e-01	4.638743e-02	0.0	4.464945e-01	4.737551e-02	0.0	4.606915e-01	4.904868e-02	0.0	4.749256e-01	5.072621e-02	0.0	4.891809e-01	5.241557e-02	0.0	5.034428e-01	5.411286e-02	0.0	5.177020e-01	5.575884e-02	0.0	5.320008e-01	5.674203e-02	0.0	5.462624e-01	5.772267e-02	0.0	5.604911e-01	5.802965e-02	0.0	5.746668e-01	5.785898e-02	0.0	5.887595e-01	5.762472e-02	0.0	6.027360e-01	5.678946e-02	0.0	6.166045e-01	5.596064e-02	0.0	6.303511e-01	5.512386e-02	0.0	6.439635e-01	5.428493e-02	0.0	6.574322e-01	5.350058e-02	0.0	6.707643e-01	5.322828e-02	0.0	6.839282e-01	5.295942e-02	0.0	6.969146e-01	5.290822e-02	0.0	7.097137e-01	5.302300e-02	0.0	7.223155e-01	5.312253e-02	0.0	7.347113e-01	5.297559e-02	0.0	7.468939e-01	5.283118e-02	0.0	7.588256e-01	5.211215e-02	0.0	7.705104e-01	5.100765e-02	0.0	7.819198e-01	4.963956e-02	0.0	7.929308e-01	4.724626e-02	0.0	8.037063e-01	4.490414e-02	0.0	8.140508e-01	4.187194e-02	0.0	8.241380e-01	3.883178e-02	0.0	8.339576e-01	3.577094e-02	0.0	8.435189e-01	3.272481e-02	0.0	8.528726e-01	2.986634e-02	0.0	8.620756e-01	2.739107e-02	0.0	8.710349e-01	2.498138e-02	0.0	8.798378e-01	2.299448e-02	0.0	8.884128e-01	2.113127e-02	0.0	8.967610e-01	1.940432e-02	0.0	9.048990e-01	1.788605e-02	0.0	9.127963e-01	1.641270e-02	0.0	9.204655e-01	1.503947e-02	0.0	9.279014e-01	1.372018e-02	0.0	9.351031e-01	1.243163e-02	0.0	9.420728e-01	1.116544e-02	0.0	9.488177e-01	9.939654e-03	0.0	9.553362e-01	8.723887e-03	0.0	9.616383e-01	7.548483e-03	0.0	9.677240e-01	6.389699e-03	0.0	9.736015e-01	5.266360e-03	0.0	9.792718e-01	4.159545e-03	0.0	9.847426e-01	3.082718e-03	0.0	9.900171e-01	2.028190e-03	0.0	9.950997e-01	9.931126e-04	0.0	1.000000e+00	0.000000e+00	0.0	9.950048e-01	2.186794e-04	0.0	9.898196e-01	4.073273e-04	0.0	9.844391e-01	5.473013e-04	0.0	9.788588e-01	6.446492e-04	0.0	9.730744e-01	7.185786e-04	0.0	9.670807e-01	7.370225e-04	0.0	9.608737e-01	7.328551e-04	0.0	9.544487e-01	6.650130e-04	0.0	9.478012e-01	5.805970e-04	0.0	9.409281e-01	4.023534e-04	0.0	9.338238e-01	2.181111e-04	0.0	9.264878e-01	-7.657672e-05	0.0	9.189136e-01	-4.033001e-04	0.0	9.111020e-01	-8.266747e-04	0.0	9.030530e-01	-1.400767e-03	0.0	8.947559e-01	-1.992544e-03	0.0	8.862418e-01	-2.955217e-03	0.0	8.774798e-01	-3.985239e-03	0.0	8.685031e-01	-5.300314e-03	0.0	8.593226e-01	-6.980808e-03	0.0	8.498977e-01	-8.744189e-03	0.0	8.403577e-01	-1.118192e-02	0.0	8.305691e-01	-1.368314e-02	0.0	8.206044e-01	-1.650828e-02	0.0	8.104197e-01	-1.949138e-02	0.0	7.999893e-01	-2.253158e-02	0.0	7.893148e-01	-2.562461e-02	0.0	7.783950e-01	-2.875091e-02	0.0	7.671605e-01	-3.164194e-02	0.0	7.556970e-01	-3.459191e-02	0.0	7.439604e-01	-3.739650e-02	0.0	7.319804e-01	-4.015143e-02	0.0	7.197840e-01	-4.293572e-02	0.0	7.073586e-01	-4.565832e-02	0.0	6.947364e-01	-4.842405e-02	0.0	6.819300e-01	-5.124728e-02	0.0	6.689477e-01	-5.412079e-02	0.0	6.557971e-01	-5.702994e-02	0.0	6.424814e-01	-5.993684e-02	0.0	6.290199e-01	-6.287554e-02	0.0	6.153787e-01	-6.561318e-02	0.0	6.015687e-01	-6.813998e-02	0.0	5.876500e-01	-7.068667e-02	0.0	5.734976e-01	-7.231691e-02	0.0	5.592607e-01	-7.393995e-02	0.0	5.449110e-01	-7.490341e-02	0.0	5.304640e-01	-7.521430e-02	0.0	5.159792e-01	-7.548139e-02	0.0	5.014802e-01	-7.488014e-02	0.0	4.869734e-01	-7.427856e-02	0.0	4.724814e-01	-7.353687e-02	0.0	4.580169e-01	-7.270104e-02	0.0	4.435881e-01	-7.192589e-02	0.0	4.291970e-01	-7.150903e-02	0.0	4.148738e-01	-7.109414e-02	0.0	4.006292e-01	-7.100370e-02	0.0	3.864795e-01	-7.105941e-02	0.0	3.724404e-01	-7.108966e-02	0.0	3.585253e-01	-7.103699e-02	0.0	3.447469e-01	-7.098483e-02	0.0	3.311344e-01	-7.037944e-02	0.0	3.176875e-01	-6.961579e-02	0.0	3.044410e-01	-6.856280e-02	0.0	2.914443e-01	-6.681302e-02	0.0	2.786382e-01	-6.508890e-02	0.0	2.660641e-01	-6.316989e-02	0.0	2.537059e-01	-6.122531e-02	0.0	2.415389e-01	-5.949889e-02	0.0	2.295322e-01	-5.828411e-02	0.0	2.177554e-01	-5.709257e-02	0.0	2.061744e-01	-5.714129e-02	0.0	1.948226e-01	-5.754979e-02	0.0	1.837448e-01	-5.826860e-02	0.0	1.729899e-01	-5.980801e-02	0.0	1.624844e-01	-6.131173e-02	0.0	1.522126e-01	-6.264820e-02	0.0	1.421888e-01	-6.391104e-02	0.0	1.324014e-01	-6.469148e-02	0.0	1.228215e-01	-6.425843e-02	0.0	1.134980e-01	-6.383697e-02	0.0	1.047840e-01	-6.146038e-02	0.0	9.638469e-02	-5.876151e-02	0.0	8.842736e-02	-5.566648e-02	0.0	8.109564e-02	-5.173749e-02	0.0	7.398302e-02	-4.792591e-02	0.0	6.732129e-02	-4.383230e-02	0.0	6.094621e-02	-3.972951e-02	0.0	5.475629e-02	-3.578143e-02	0.0	4.869920e-02	-3.206430e-02	0.0	4.283931e-02	-2.846820e-02	0.0	3.701483e-02	-2.526434e-02	0.0	3.137205e-02	-2.219116e-02	0.0	2.585076e-02	-1.935507e-02	0.0	2.053492e-02	-1.658727e-02	0.0	1.546172e-02	-1.380730e-02	0.0	1.071901e-02	-1.087359e-02	0.0	6.304616e-03	-7.808014e-03	0.0	2.461335e-03	-4.322140e-03	0.0	
CELLS 198	594
2	2	3	2	3	4	2	4	5	2	5	6	2	6	7	2	7	8	2	8	9	2	9	10	2	10	11	2	11	12	2	12	13	2	13	14	2	14	15	2	15	16	2	16	17	2	17	18	2	18	19	2	19	20	2	20	21	2	21	22	2	22	23	2	23	24	2	24	25	2	25	26	2	26	27	2	27	28	2	28	29	2	29	30	2	30	31	2	31	32	2	32	33	2	33	34	2	34	35	2	35	36	2	36	37	2	37	38	2	38	39	2	39	40	2	40	41	2	41	42	2	42	43	2	43	44	2	44	45	2	45	46	2	46	47	2	47	48	2	48	49	2	49	50	2	50	51	2	51	52	2	52	53	2	53	54	2	54	55	2	55	56	2	56	57	2	57	58	2	58	59	2	59	60	2	60	61	2	61	62	2	62	63	2	63	64	2	64	65	2	65	66	2	66	67	2	67	68	2	68	69	2	69	70	2	70	71	2	71	72	2	72	73	2	0	1	2	1	2	2	139	140	2	140	141	2	141	142	2	142	143	2	143	144	2	144	145	2	145	146	2	146	147	2	147	148	2	148	149	2	149	150	2	150	151	2	151	152	2	152	153	2	153	154	2	154	155	2	155	156	2	156	157	2	157	158	2	158	159	2	159	160	2	160	161	2	161	162	2	162	163	2	163	164	2	164	165	2	165	166	2	166	167	2	167	168	2	168	169	2	169	170	2	170	171	2	171	172	2	172	173	2	173	174	2	174	175	2	175	176	2	176	177	2	177	178	2	178	179	2	179	180	2	180	181	2	181	182	2	182	183	2	183	184	2	184	185	2	185	186	2	186	187	2	187	188	2	188	189	2	189	190	2	190	191	2	191	192	2	192	193	2	193	194	2	194	195	2	195	196	2	196	197	2	197	0	2	73	74	2	74	75	2	75	76	2	76	77	2	77	78	2	78	79	2	79	80	2	80	81	2	81	82	2	82	83	2	83	84	2	84	85	2	85	86	2	86	87	2	87	88	2	88	89	2	89	90	2	90	91	2	91	92	2	92	93	2	93	94	2	94	95	2	95	96	2	96	97	2	97	98	2	98	99	2	99	100	2	100	101	2	101	102	2	102	103	2	103	104	2	104	105	2	105	106	2	106	107	2	107	108	2	108	109	2	109	110	2	110	111	2	111	112	2	112	113	2	113	114	2	114	115	2	115	116	2	116	117	2	117	118	2	118	119	2	119	120	2	120	121	2	121	122	2	122	123	2	123	124	2	124	125	2	125	126	2	126	127	2	127	128	2	128	129	2	129	130	2	130	131	2	131	132	2	132	133	2	133	134	2	134	135	2	135	136	2	136	137	2	137	138	2	138	139	
CELL_TYPES 198
3	3	3	3	3	3	3	3	3	3	3	3	3	3	3	3	3	3	3	3	3	3	3	3	3	3	3	3	3	3	3	3	3	3	3	3	3	3	3	3	3	3	3	3	3	3	3	3	3	3	3	3	3	3	3	3	3	3	3	3	3	3	3	3	3	3	3	3	3	3	3	3	3	3	3	3	3	3	3	3	3	3	3	3	3	3	3	3	3	3	3	3	3	3	3	3	3	3	3	3	3	3	3	3	3	3	3	3	3	3	3	3	3	3	3	3	3	3	3	3	3	3	3	3	3	3	3	3	3	3	3	3	3	3	3	3	3	3	3	3	3	3	3	3	3	3	3	3	3	3	3	3	3	3	3	3	3	3	3	3	3	3	3	3	3	3	3	3	3	3	3	3	3	3	3	3	3	3	3	3	3	3	3	3	3	3	3	3	3	3	3	3	3	3	3	3	3	3	
POINT_DATA 198

SCALARS Density double 1
LOOKUP_TABLE default
1.546175e+00	1.200610e+00	1.210557e+00	1.150622e+00	1.147413e+00	1.164414e+00	1.202960e+00	1.227741e+00	1.260187e+00	1.279796e+00	1.295072e+00	1.303725e+00	1.299438e+00	1.279834e+00	1.237187e+00	1.145427e+00	1.057392e+00	9.363171e-01	8.180972e-01	7.030239e-01	6.117396e-01	5.568506e-01	5.102062e-01	5.000554e-01	4.899936e-01	4.948693e-01	5.125227e-01	5.286096e-01	5.506534e-01	5.777856e-01	5.945197e-01	6.132734e-01	6.251193e-01	6.306577e-01	6.230964e-01	6.713929e-01	8.696535e-01	1.151159e+00	1.212855e+00	1.203686e+00	1.209018e+00	1.227842e+00	1.232800e+00	1.234814e+00	1.240591e+00	1.227529e+00	1.220498e+00	1.203485e+00	1.167522e+00	1.142890e+00	1.112000e+00	1.062523e+00	1.027304e+00	1.001416e+00	9.725963e-01	9.921506e-01	1.015191e+00	1.046807e+00	1.090542e+00	1.111569e+00	1.128072e+00	1.149500e+00	1.149859e+00	1.135800e+00	1.125995e+00	1.101944e+00	1.061275e+00	1.028309e+00	9.818941e-01	9.297259e-01	9.104443e-01	8.964751e-01	9.478911e-01	1.047262e+00	1.107674e+00	1.163544e+00	1.197039e+00	1.227998e+00	1.257321e+00	1.267416e+00	1.277434e+00	1.285050e+00	1.281619e+00	1.286529e+00	1.285815e+00	1.283412e+00	1.285273e+00	1.284689e+00	1.285835e+00	1.288876e+00	1.291964e+00	1.295899e+00	1.300704e+00	1.305735e+00	1.311499e+00	1.318727e+00	1.326724e+00	1.338393e+00	1.365087e+00	1.332104e+00	1.410443e+00	1.383786e+00	1.387375e+00	1.388974e+00	1.390230e+00	1.392437e+00	1.393565e+00	1.396169e+00	1.397301e+00	1.399442e+00	1.401763e+00	1.403240e+00	1.408005e+00	1.407829e+00	1.414079e+00	1.415597e+00	1.415089e+00	1.419304e+00	1.413240e+00	1.416260e+00	1.410579e+00	1.398043e+00	1.389887e+00	1.372554e+00	1.357004e+00	1.341284e+00	1.319257e+00	1.304296e+00	1.291940e+00	1.278243e+00	1.271897e+00	1.262613e+00	1.254541e+00	1.248812e+00	1.239137e+00	1.228105e+00	1.213281e+00	1.196586e+00	1.169662e+00	1.141538e+00	1.117458e+00	1.039059e+00	9.451075e-01	8.921024e-01	8.883273e-01	9.400361e-01	9.747886e-01	1.025589e+00	1.086217e+00	1.117883e+00	1.152528e+00	1.184106e+00	1.198515e+00	1.207124e+00	1.211271e+00	1.198838e+00	1.186248e+00	1.173322e+00	1.147178e+00	1.134556e+00	1.135879e+00	1.130307e+00	1.157992e+00	1.193793e+00	1.221931e+00	1.258565e+00	1.291878e+00	1.305876e+00	1.333256e+00	1.345074e+00	1.330263e+00	1.330461e+00	1.309436e+00	1.269316e+00	1.237864e+00	1.119927e+00	7.988792e-01	7.161653e-01	7.337578e-01	8.497849e-01	1.018964e+00	1.067844e+00	1.178785e+00	1.274535e+00	1.325697e+00	1.392044e+00	1.438254e+00	1.468218e+00	1.497121e+00	1.516461e+00	1.528464e+00	1.541863e+00	1.550134e+00	1.563210e+00	1.579859e+00	1.603535e+00	1.612016e+00	1.706007e+00	
VECTORS Momentum double
3.061920e+01	2.071627e+02	0.0	1.717671e+02	1.879331e+02	0.0	2.066020e+02	1.773404e+02	0.0	2.432950e+02	1.501372e+02	0.0	2.604298e+02	1.315604e+02	0.0	2.685530e+02	1.109652e+02	0.0	2.690448e+02	1.005128e+02	0.0	2.653567e+02	9.076968e+01	0.0	2.628762e+02	8.891570e+01	0.0	2.575725e+02	8.849140e+01	0.0	2.525965e+02	9.146373e+01	0.0	2.495619e+02	9.909967e+01	0.0	2.492791e+02	1.092792e+02	0.0	2.527077e+02	1.221753e+02	0.0	2.622085e+02	1.359882e+02	0.0	2.770171e+02	1.358341e+02	0.0	2.923750e+02	1.302009e+02	0.0	2.989841e+02	1.071560e+02	0.0	2.982671e+02	7.915788e+01	0.0	2.842328e+02	4.750281e+01	0.0	2.655664e+02	2.170530e+01	0.0	2.533485e+02	4.793166e+00	0.0	2.383705e+02	-8.746587e+00	0.0	2.361306e+02	-1.306706e+01	0.0	2.328204e+02	-1.743817e+01	0.0	2.347025e+02	-1.875398e+01	0.0	2.408148e+02	-1.743812e+01	0.0	2.457239e+02	-1.634641e+01	0.0	2.527241e+02	-1.405859e+01	0.0	2.606502e+02	-1.028362e+01	0.0	2.649611e+02	-8.445959e+00	0.0	2.704472e+02	-7.060876e+00	0.0	2.715730e+02	-5.368127e+00	0.0	2.749998e+02	-5.475259e+00	0.0	2.700701e+02	-6.786922e+00	0.0	2.762585e+02	-7.920793e+00	0.0	2.874580e+02	-1.255294e+01	0.0	2.852882e+02	-9.992777e+00	0.0	2.825426e+02	-1.071606e+01	0.0	2.804973e+02	-1.010926e+01	0.0	2.753676e+02	-9.532796e+00	0.0	2.725304e+02	-4.211133e+00	0.0	2.706628e+02	6.508872e-01	0.0	2.689897e+02	5.309507e+00	0.0	2.707794e+02	1.421372e+01	0.0	2.731717e+02	1.854644e+01	0.0	2.756961e+02	2.570828e+01	0.0	2.814014e+02	3.304891e+01	0.0	2.871077e+02	3.375256e+01	0.0	2.923433e+02	3.467751e+01	0.0	2.986491e+02	3.531781e+01	0.0	3.029759e+02	2.824040e+01	0.0	3.055237e+02	2.092234e+01	0.0	3.095169e+02	1.402132e+01	0.0	3.065848e+02	1.028873e+00	0.0	3.082825e+02	-4.882136e+00	0.0	3.070215e+02	-1.173714e+01	0.0	3.032392e+02	-1.816899e+01	0.0	3.019062e+02	-1.794944e+01	0.0	2.998687e+02	-1.819382e+01	0.0	2.962702e+02	-1.789597e+01	0.0	2.955418e+02	-1.182074e+01	0.0	2.970613e+02	-5.972799e+00	0.0	2.978835e+02	-3.674071e+00	0.0	3.001688e+02	5.374683e-01	0.0	3.046660e+02	2.640732e+00	0.0	3.062319e+02	-6.490203e-01	0.0	3.089938e+02	-3.381001e+00	0.0	3.104660e+02	-1.056015e+01	0.0	3.068365e+02	-2.322555e+01	0.0	3.083000e+02	-3.266586e+01	0.0	3.011755e+02	-4.964456e+01	0.0	2.937208e+02	-6.402515e+01	0.0	2.894852e+02	-7.322553e+01	0.0	2.800428e+02	-8.303010e+01	0.0	2.730064e+02	-8.331897e+01	0.0	2.655413e+02	-8.357958e+01	0.0	2.573300e+02	-8.042594e+01	0.0	2.539480e+02	-7.297268e+01	0.0	2.510942e+02	-6.756165e+01	0.0	2.489782e+02	-6.167722e+01	0.0	2.502521e+02	-5.542790e+01	0.0	2.497567e+02	-5.306991e+01	0.0	2.499418e+02	-4.915376e+01	0.0	2.511110e+02	-4.682110e+01	0.0	2.511890e+02	-4.599639e+01	0.0	2.517311e+02	-4.487308e+01	0.0	2.517457e+02	-4.483732e+01	0.0	2.509587e+02	-4.524406e+01	0.0	2.500258e+02	-4.542225e+01	0.0	2.487631e+02	-4.577638e+01	0.0	2.470792e+02	-4.607039e+01	0.0	2.452926e+02	-4.620984e+01	0.0	2.431849e+02	-4.638933e+01	0.0	2.406436e+02	-4.649167e+01	0.0	2.376453e+02	-4.656472e+01	0.0	2.331066e+02	-4.633713e+01	0.0	2.285502e+02	-4.609296e+01	0.0	2.225184e+02	-4.468719e+01	0.0	1.830031e+02	-1.547533e+01	0.0	2.380764e+02	-1.181222e+01	0.0	2.254213e+02	-6.698789e+00	0.0	2.253616e+02	-4.897696e+00	0.0	2.243968e+02	-3.432891e+00	0.0	2.233925e+02	-1.732184e+00	0.0	2.225598e+02	-2.884961e-01	0.0	2.215314e+02	1.287426e+00	0.0	2.203796e+02	2.570229e+00	0.0	2.189799e+02	4.280475e+00	0.0	2.175777e+02	5.645799e+00	0.0	2.160977e+02	7.160371e+00	0.0	2.147411e+02	8.987402e+00	0.0	2.129577e+02	1.031340e+01	0.0	2.109141e+02	1.324527e+01	0.0	2.091226e+02	1.478134e+01	0.0	2.065686e+02	1.907923e+01	0.0	2.060565e+02	2.376599e+01	0.0	2.048701e+02	2.699899e+01	0.0	2.040905e+02	3.380170e+01	0.0	2.054160e+02	3.789487e+01	0.0	2.051673e+02	4.538622e+01	0.0	2.092033e+02	5.343847e+01	0.0	2.156158e+02	5.795718e+01	0.0	2.212027e+02	6.371225e+01	0.0	2.295598e+02	6.702231e+01	0.0	2.368136e+02	6.875398e+01	0.0	2.437410e+02	7.017834e+01	0.0	2.517649e+02	6.830713e+01	0.0	2.570232e+02	6.609473e+01	0.0	2.612500e+02	6.477571e+01	0.0	2.652123e+02	6.209780e+01	0.0	2.672237e+02	6.122425e+01	0.0	2.700469e+02	6.038234e+01	0.0	2.723387e+02	5.965261e+01	0.0	2.735085e+02	6.017411e+01	0.0	2.762863e+02	6.100152e+01	0.0	2.793006e+02	6.177648e+01	0.0	2.832314e+02	6.215608e+01	0.0	2.871273e+02	6.272179e+01	0.0	2.921187e+02	6.111824e+01	0.0	2.966407e+02	5.647464e+01	0.0	2.988305e+02	5.444768e+01	0.0	3.056961e+02	4.539960e+01	0.0	3.073588e+02	3.535665e+01	0.0	3.079948e+02	2.731000e+01	0.0	3.145039e+02	1.363179e+01	0.0	3.121089e+02	6.372199e+00	0.0	3.131785e+02	-3.603974e+00	0.0	3.106382e+02	-1.289703e+01	0.0	3.038863e+02	-1.398130e+01	0.0	2.997150e+02	-1.632019e+01	0.0	2.941306e+02	-1.645652e+01	0.0	2.891631e+02	-1.187234e+01	0.0	2.867481e+02	-8.324524e+00	0.0	2.853054e+02	-5.105336e+00	0.0	2.850767e+02	-2.332054e-01	0.0	2.880768e+02	8.379064e-01	0.0	2.902993e+02	-3.465344e-01	0.0	2.921840e+02	-8.951270e-01	0.0	2.957321e+02	-7.116068e+00	0.0	2.954030e+02	-1.492546e+01	0.0	2.929475e+02	-1.960901e+01	0.0	2.906774e+02	-3.120397e+01	0.0	2.808626e+02	-3.781470e+01	0.0	2.704326e+02	-3.861444e+01	0.0	2.599062e+02	-4.040020e+01	0.0	2.478643e+02	-3.713414e+01	0.0	2.375226e+02	-2.865971e+01	0.0	2.307740e+02	-2.360753e+01	0.0	2.226865e+02	-1.088158e+01	0.0	2.226025e+02	4.751552e+00	0.0	2.266604e+02	1.123712e+01	0.0	2.298014e+02	2.374118e+01	0.0	2.412656e+02	3.441377e+01	0.0	2.567277e+02	3.445525e+01	0.0	2.655749e+02	3.258986e+01	0.0	2.716518e+02	2.659135e+01	0.0	2.838169e+02	3.531446e+00	0.0	2.935634e+02	-1.563426e+01	0.0	3.149607e+02	-5.289497e+01	0.0	3.228626e+02	-9.922575e+01	0.0	3.104232e+02	-1.086651e+02	0.0	2.998922e+02	-1.386352e+02	0.0	2.777731e+02	-1.498737e+02	0.0	2.601221e+02	-1.490581e+02	0.0	2.410264e+02	-1.518223e+02	0.0	2.225593e+02	-1.426018e+02	0.0	2.094728e+02	-1.310163e+02	0.0	1.981606e+02	-1.216474e+02	0.0	1.886184e+02	-1.097587e+02	0.0	1.816861e+02	-9.937090e+01	0.0	1.742072e+02	-9.220505e+01	0.0	1.656980e+02	-8.557269e+01	0.0	1.537431e+02	-8.222997e+01	0.0	1.336499e+02	-7.772939e+01	0.0	1.028116e+02	-6.706880e+01	0.0	6.091518e+01	-4.531278e+01	0.0	-2.349621e+01	2.216245e+01	0.0	
SCALARS Energy double 1
LOOKUP_TABLE default
3.393569e+05	2.680786e+05	2.712711e+05	2.596728e+05	2.594283e+05	2.628748e+05	2.706709e+05	2.754010e+05	2.820154e+05	2.858175e+05	2.888116e+05	2.906277e+05	2.899418e+05	2.863405e+05	2.783718e+05	2.602703e+05	2.431465e+05	2.184414e+05	1.940424e+05	1.693335e+05	1.492420e+05	1.372315e+05	1.265749e+05	1.244203e+05	1.221527e+05	1.233212e+05	1.273952e+05	1.310248e+05	1.360363e+05	1.421231e+05	1.458147e+05	1.500445e+05	1.524250e+05	1.539025e+05	1.518583e+05	1.618512e+05	2.021937e+05	2.597542e+05	2.724374e+05	2.703826e+05	2.711594e+05	2.749146e+05	2.758355e+05	2.761572e+05	2.775022e+05	2.749277e+05	2.736524e+05	2.705184e+05	2.634155e+05	2.586814e+05	2.527679e+05	2.428688e+05	2.358236e+05	2.308626e+05	2.247244e+05	2.288465e+05	2.334393e+05	2.396056e+05	2.484782e+05	2.526551e+05	2.557912e+05	2.601541e+05	2.603276e+05	2.574732e+05	2.556158e+05	2.510031e+05	2.427725e+05	2.362659e+05	2.269746e+05	2.161706e+05	2.125213e+05	2.092577e+05	2.191805e+05	2.392731e+05	2.512149e+05	2.623306e+05	2.688398e+05	2.747609e+05	2.805963e+05	2.824741e+05	2.843836e+05	2.859808e+05	2.852003e+05	2.862032e+05	2.860925e+05	2.855807e+05	2.859927e+05	2.858699e+05	2.860721e+05	2.866644e+05	2.872509e+05	2.879938e+05	2.889147e+05	2.898687e+05	2.909562e+05	2.923332e+05	2.937969e+05	2.960475e+05	3.014249e+05	2.924986e+05	3.116252e+05	3.053397e+05	3.060996e+05	3.063945e+05	3.066151e+05	3.070471e+05	3.072410e+05	3.077446e+05	3.079245e+05	3.083202e+05	3.087522e+05	3.090109e+05	3.099535e+05	3.098350e+05	3.110987e+05	3.113306e+05	3.112211e+05	3.120897e+05	3.108027e+05	3.115328e+05	3.103712e+05	3.079451e+05	3.065360e+05	3.031688e+05	3.003018e+05	2.973486e+05	2.930620e+05	2.903046e+05	2.879592e+05	2.852979e+05	2.841582e+05	2.823151e+05	2.807803e+05	2.797101e+05	2.777622e+05	2.756404e+05	2.727478e+05	2.695312e+05	2.642037e+05	2.587016e+05	2.539903e+05	2.380166e+05	2.193939e+05	2.087903e+05	2.080186e+05	2.189172e+05	2.256755e+05	2.360741e+05	2.482710e+05	2.542515e+05	2.611057e+05	2.672564e+05	2.698946e+05	2.715172e+05	2.722808e+05	2.696655e+05	2.672452e+05	2.647086e+05	2.594095e+05	2.570595e+05	2.573309e+05	2.560144e+05	2.616670e+05	2.684981e+05	2.737137e+05	2.807865e+05	2.871041e+05	2.894553e+05	2.948973e+05	2.969734e+05	2.938060e+05	2.940549e+05	2.897883e+05	2.819497e+05	2.761878e+05	2.520007e+05	1.865683e+05	1.713789e+05	1.759495e+05	2.014321e+05	2.369681e+05	2.460448e+05	2.688610e+05	2.875629e+05	2.971777e+05	3.102073e+05	3.188410e+05	3.243388e+05	3.298263e+05	3.333475e+05	3.354725e+05	3.379694e+05	3.393687e+05	3.417774e+05	3.447713e+05	3.490867e+05	3.500943e+05	3.700537e+05	
SCALARS Pressure double 1
LOOKUP_TABLE default
1.300702e+05	9.643312e+04	9.626054e+04	8.966226e+04	8.893239e+04	9.064750e+04	9.455420e+04	9.734772e+04	1.005842e+05	1.027354e+05	1.043792e+05	1.051902e+05	1.045746e+05	1.022240e+05	9.724478e+04	8.748736e+04	7.788351e+04	6.582959e+04	5.433630e+04	4.410837e+04	3.648543e+04	3.183133e+04	2.832644e+04	2.739923e+04	2.661203e+04	2.692378e+04	2.820948e+04	2.946390e+04	3.114504e+04	3.329575e+04	3.468471e+04	3.614864e+04	3.736466e+04	3.756861e+04	3.731712e+04	4.198733e+04	6.183778e+04	8.974390e+04	9.579198e+04	9.506308e+04	9.590511e+04	9.786486e+04	9.844926e+04	9.873905e+04	9.914790e+04	9.775683e+04	9.689735e+04	9.486628e+04	9.105042e+04	8.830624e+04	8.484120e+04	7.971881e+04	7.607149e+04	7.317273e+04	7.056104e+04	7.237580e+04	7.477826e+04	7.821067e+04	8.261622e+04	8.482334e+04	8.669758e+04	8.884029e+04	8.877593e+04	8.736185e+04	8.624241e+04	8.355312e+04	7.943622e+04	7.593440e+04	7.113380e+04	6.609921e+04	6.389447e+04	6.291696e+04	6.860437e+04	7.868130e+04	8.508107e+04	9.092768e+04	9.458768e+04	9.806607e+04	1.011332e+05	1.023202e+05	1.034524e+05	1.041673e+05	1.039063e+05	1.043941e+05	1.042879e+05	1.040701e+05	1.042230e+05	1.041686e+05	1.043144e+05	1.046452e+05	1.049963e+05	1.054482e+05	1.059859e+05	1.065595e+05	1.072218e+05	1.080393e+05	1.090037e+05	1.102959e+05	1.130230e+05	1.119353e+05	1.165930e+05	1.147851e+05	1.151150e+05	1.153056e+05	1.154663e+05	1.157043e+05	1.158529e+05	1.161397e+05	1.163036e+05	1.165580e+05	1.168308e+05	1.170204e+05	1.175244e+05	1.175894e+05	1.182233e+05	1.184522e+05	1.184077e+05	1.188187e+05	1.182647e+05	1.184516e+05	1.178882e+05	1.165085e+05	1.154413e+05	1.135462e+05	1.116919e+05	1.098724e+05	1.074716e+05	1.056869e+05	1.042808e+05	1.027837e+05	1.019967e+05	1.010211e+05	1.001051e+05	9.943593e+04	9.844643e+04	9.721894e+04	9.561087e+04	9.375860e+04	9.091206e+04	8.787559e+04	8.527602e+04	7.744745e+04	6.754585e+04	6.205681e+04	6.168235e+04	6.648288e+04	7.027559e+04	7.530038e+04	8.151040e+04	8.514389e+04	8.880788e+04	9.224449e+04	9.398116e+04	9.497221e+04	9.546774e+04	9.430827e+04	9.290623e+04	9.151844e+04	8.887992e+04	8.739781e+04	8.752829e+04	8.715277e+04	8.990554e+04	9.394403e+04	9.727124e+04	1.013206e+05	1.051169e+05	1.070158e+05	1.098864e+05	1.113983e+05	1.100691e+05	1.098801e+05	1.077634e+05	1.034216e+05	9.963446e+04	8.801514e+04	5.597574e+04	4.605272e+04	4.682330e+04	5.656720e+04	7.239470e+04	7.815827e+04	8.902450e+04	9.939277e+04	1.053111e+05	1.124247e+05	1.178207e+05	1.214201e+05	1.247079e+05	1.270581e+05	1.285775e+05	1.301484e+05	1.312603e+05	1.328217e+05	1.348824e+05	1.377553e+05	1.393226e+05	1.478992e+05	
SCALARS Temperature double 1
LOOKUP_TABLE default
2.930552e+02	2.798044e+02	2.770087e+02	2.714609e+02	2.700043e+02	2.711933e+02	2.738168e+02	2.762164e+02	2.780514e+02	2.796468e+02	2.807699e+02	2.810733e+02	2.803502e+02	2.782464e+02	2.738176e+02	2.660777e+02	2.565900e+02	2.449224e+02	2.313745e+02	2.185653e+02	2.077702e+02	1.991345e+02	1.934090e+02	1.908757e+02	1.891986e+02	1.895291e+02	1.917398e+02	1.941715e+02	1.970339e+02	2.007486e+02	2.032367e+02	2.053375e+02	2.082229e+02	2.075209e+02	2.086331e+02	2.178572e+02	2.477069e+02	2.715814e+02	2.751380e+02	2.751243e+02	2.763371e+02	2.776608e+02	2.781955e+02	2.785593e+02	2.784103e+02	2.774250e+02	2.765701e+02	2.746005e+02	2.716735e+02	2.691642e+02	2.657863e+02	2.613684e+02	2.579605e+02	2.545453e+02	2.527335e+02	2.541242e+02	2.566007e+02	2.602734e+02	2.639085e+02	2.658332e+02	2.677321e+02	2.692349e+02	2.689557e+02	2.679479e+02	2.668178e+02	2.641396e+02	2.607481e+02	2.572439e+02	2.523723e+02	2.476690e+02	2.444782e+02	2.444893e+02	2.521295e+02	2.617258e+02	2.675785e+02	2.722348e+02	2.752686e+02	2.781962e+02	2.802063e+02	2.812372e+02	2.821191e+02	2.823851e+02	2.824315e+02	2.826745e+02	2.825439e+02	2.824816e+02	2.824872e+02	2.824680e+02	2.826112e+02	2.828386e+02	2.831092e+02	2.834643e+02	2.838573e+02	2.842939e+02	2.848038e+02	2.854023e+02	2.862140e+02	2.870819e+02	2.884275e+02	2.927247e+02	2.879701e+02	2.889662e+02	2.890468e+02	2.891921e+02	2.893337e+02	2.894704e+02	2.896076e+02	2.897832e+02	2.899570e+02	2.901465e+02	2.903440e+02	2.905092e+02	2.907731e+02	2.909704e+02	2.912459e+02	2.914969e+02	2.914918e+02	2.916351e+02	2.915208e+02	2.913587e+02	2.911408e+02	2.903135e+02	2.893423e+02	2.881862e+02	2.867286e+02	2.853633e+02	2.837884e+02	2.822767e+02	2.811851e+02	2.801180e+02	2.793601e+02	2.787225e+02	2.779723e+02	2.773810e+02	2.767649e+02	2.757692e+02	2.745214e+02	2.729592e+02	2.707643e+02	2.681687e+02	2.658435e+02	2.596553e+02	2.489704e+02	2.423288e+02	2.418902e+02	2.463744e+02	2.511449e+02	2.557726e+02	2.614127e+02	2.653306e+02	2.684297e+02	2.713815e+02	2.731666e+02	2.740785e+02	2.745652e+02	2.740435e+02	2.728347e+02	2.717200e+02	2.699002e+02	2.683521e+02	2.684396e+02	2.686058e+02	2.704652e+02	2.741387e+02	2.773116e+02	2.804481e+02	2.834534e+02	2.854804e+02	2.871181e+02	2.885112e+02	2.882425e+02	2.877050e+02	2.866932e+02	2.838387e+02	2.803928e+02	2.737777e+02	2.440895e+02	2.240126e+02	2.223001e+02	2.318921e+02	2.475019e+02	2.549750e+02	2.630905e+02	2.716649e+02	2.767326e+02	2.813450e+02	2.853753e+02	2.880915e+02	2.901798e+02	2.918781e+02	2.930490e+02	2.940516e+02	2.949814e+02	2.959933e+02	2.974181e+02	2.992679e+02	3.010804e+02	3.020058e+02	
SCALARS Mach double 1
LOOKUP_TABLE default
3.946589e-01	6.323911e-01	6.741056e-01	7.522553e-01	7.719552e-01	7.558978e-01	7.197227e-01	6.856117e-01	6.587596e-01	6.347932e-01	6.175357e-01	6.128141e-01	6.240243e-01	6.558624e-01	7.197110e-01	8.237093e-01	9.425841e-01	1.081193e+00	1.237011e+00	1.383078e+00	1.507342e+00	1.608553e+00	1.676918e+00	1.707552e+00	1.727975e+00	1.723942e+00	1.697074e+00	1.667745e+00	1.633503e+00	1.589476e+00	1.560222e+00	1.535654e+00	1.502088e+00	1.510237e+00	1.497331e+00	1.391178e+00	1.048634e+00	7.506128e-01	7.010726e-01	7.012680e-01	6.838668e-01	6.645355e-01	6.566186e-01	6.511950e-01	6.534210e-01	6.680068e-01	6.804905e-01	7.086968e-01	7.493553e-01	7.831867e-01	8.274794e-01	8.836353e-01	9.258407e-01	9.673498e-01	9.891000e-01	9.724197e-01	9.424543e-01	8.972908e-01	8.515700e-01	8.268735e-01	8.021266e-01	7.822446e-01	7.859589e-01	7.992886e-01	8.140921e-01	8.486237e-01	8.913826e-01	9.346103e-01	9.934153e-01	1.049079e+00	1.086364e+00	1.086235e+00	9.963129e-01	8.791571e-01	8.041437e-01	7.416645e-01	6.992123e-01	6.566081e-01	6.262377e-01	6.102535e-01	5.963348e-01	5.920897e-01	5.913465e-01	5.874446e-01	5.895444e-01	5.905441e-01	5.904540e-01	5.907611e-01	5.884628e-01	5.847990e-01	5.804182e-01	5.746300e-01	5.681724e-01	5.609318e-01	5.523855e-01	5.422229e-01	5.281955e-01	5.128653e-01	4.883419e-01	4.019658e-01	4.967892e-01	4.782396e-01	4.767115e-01	4.739485e-01	4.712447e-01	4.686197e-01	4.659738e-01	4.625702e-01	4.591784e-01	4.554577e-01	4.515527e-01	4.482646e-01	4.429675e-01	4.389724e-01	4.333419e-01	4.281576e-01	4.282625e-01	4.252785e-01	4.276608e-01	4.310180e-01	4.354968e-01	4.521586e-01	4.710802e-01	4.928122e-01	5.191507e-01	5.428891e-01	5.693075e-01	5.938214e-01	6.110683e-01	6.275937e-01	6.391466e-01	6.487529e-01	6.599313e-01	6.686535e-01	6.776593e-01	6.920505e-01	7.098148e-01	7.316674e-01	7.617139e-01	7.963781e-01	8.267397e-01	9.049590e-01	1.033768e+00	1.111307e+00	1.116383e+00	1.064247e+00	1.008034e+00	9.525139e-01	8.830798e-01	8.333575e-01	7.929319e-01	7.533372e-01	7.287900e-01	7.160530e-01	7.091964e-01	7.165437e-01	7.333914e-01	7.487197e-01	7.733520e-01	7.939570e-01	7.928010e-01	7.906019e-01	7.657541e-01	7.152071e-01	6.696719e-01	6.225158e-01	5.748080e-01	5.408846e-01	5.122180e-01	4.867831e-01	4.917717e-01	5.016307e-01	5.197762e-01	5.684793e-01	6.233672e-01	7.202695e-01	1.090885e+00	1.320911e+00	1.340434e+00	1.231105e+00	1.051041e+00	9.621647e-01	8.619573e-01	7.494730e-01	6.781295e-01	6.085637e-01	5.426830e-01	4.945581e-01	4.548010e-01	4.201764e-01	3.947985e-01	3.718680e-01	3.494138e-01	3.233853e-01	2.830648e-01	2.207378e-01	1.353939e-01	5.434457e-02	
SCALARS Pressure_Coefficient double 1
LOOKUP_TABLE default