# vtk DataFile Version 3.0
vtk output
ASCII
DATASET UNSTRUCTURED_GRID
POINTS 1836 double
1.000000e+02	0.000000e+00	0.0	9.917900e+01	1.278772e+01	0.0	9.672949e+01	2.536546e+01	0.0	9.269168e+01	3.752670e+01	0.0	8.713187e+01	4.907176e+01	0.0	8.014136e+01	5.981105e+01	0.0	7.183494e+01	6.956826e+01	0.0	6.234898e+01	7.818315e+01	0.0	5.183926e+01	8.551428e+01	0.0	4.047833e+01	9.144126e+01	0.0	2.845276e+01	9.586679e+01	0.0	1.595999e+01	9.871818e+01	0.0	3.205158e+00	9.994862e+01	0.0	-9.602303e+00	9.953791e+01	0.0	-2.225209e+01	9.749279e+01	0.0	-3.453651e+01	9.384684e+01	0.0	-4.625383e+01	8.865993e+01	0.0	-5.721167e+01	8.201723e+01	0.0	-6.723009e+01	7.402780e+01	0.0	-7.614460e+01	6.482284e+01	0.0	-8.380881e+01	5.455349e+01	0.0	-9.009689e+01	4.338837e+01	0.0	-9.490557e+01	3.151082e+01	0.0	-9.815592e+01	1.911586e+01	0.0	-9.979454e+01	6.407022e+00	0.0	-9.979454e+01	-6.407022e+00	0.0	-9.815592e+01	-1.911586e+01	0.0	-9.490557e+01	-3.151082e+01	0.0	-9.009689e+01	-4.338837e+01	0.0	-8.380881e+01	-5.455349e+01	0.0	-7.614460e+01	-6.482284e+01	0.0	-6.723009e+01	-7.402780e+01	0.0	-5.721167e+01	-8.201723e+01	0.0	-4.625383e+01	-8.865993e+01	0.0	-3.453651e+01	-9.384684e+01	0.0	-2.225209e+01	-9.749279e+01	0.0	-9.602303e+00	-9.953791e+01	0.0	3.205158e+00	-9.994862e+01	0.0	1.595999e+01	-9.871818e+01	0.0	2.845276e+01	-9.586679e+01	0.0	4.047833e+01	-9.144126e+01	0.0	5.183926e+01	-8.551428e+01	0.0	6.234898e+01	-7.818315e+01	0.0	7.183494e+01	-6.956826e+01	0.0	8.014136e+01	-5.981105e+01	0.0	8.713187e+01	-4.907176e+01	0.0	9.269168e+01	-3.752670e+01	0.0	9.672949e+01	-2.536546e+01	0.0	9.917900e+01	-1.278772e+01	0.0	0.000000e+00	0.000000e+00	0.0	3.297208e-03	3.758779e-03	0.0	6.820441e-03	7.543636e-03	0.0	1.122136e-02	1.063614e-02	0.0	1.584472e-02	1.373956e-02	0.0	2.099763e-02	1.635194e-02	0.0	2.636407e-02	1.899282e-02	0.0	3.211316e-02	2.130027e-02	0.0	3.808670e-02	2.362167e-02	0.0	4.438220e-02	2.570311e-02	0.0	5.092223e-02	2.775081e-02	0.0	5.775233e-02	2.962835e-02	0.0	6.484620e-02	3.140986e-02	0.0	7.220435e-02	3.310810e-02	0.0	7.984206e-02	3.464204e-02	0.0	8.773339e-02	3.614179e-02	0.0	9.589411e-02	3.752971e-02	0.0	1.043076e-01	3.890389e-02	0.0	1.129763e-01	4.026176e-02	0.0	1.218976e-01	4.162564e-02	0.0	1.310716e-01	4.300349e-02	0.0	1.405064e-01	4.433821e-02	0.0	1.502095e-01	4.557658e-02	0.0	1.601625e-01	4.684686e-02	0.0	1.704098e-01	4.772205e-02	0.0	1.809069e-01	4.860571e-02	0.0	1.916664e-01	4.921138e-02	0.0	2.026893e-01	4.946514e-02	0.0	2.139531e-01	4.972445e-02	0.0	2.254520e-01	4.945086e-02	0.0	2.371824e-01	4.911256e-02	0.0	2.491383e-01	4.874134e-02	0.0	2.613127e-01	4.831459e-02	0.0	2.737001e-01	4.788037e-02	0.0	2.862993e-01	4.781790e-02	0.0	2.990971e-01	4.784127e-02	0.0	3.120744e-01	4.811589e-02	0.0	3.252085e-01	4.901401e-02	0.0	3.385104e-01	4.992361e-02	0.0	3.519224e-01	5.134903e-02	0.0	3.654654e-01	5.294093e-02	0.0	3.791325e-01	5.461660e-02	0.0	3.928940e-01	5.651003e-02	0.0	4.067626e-01	5.841820e-02	0.0	4.207341e-01	6.027084e-02	0.0	4.347889e-01	6.210966e-02	0.0	4.489187e-01	6.388060e-02	0.0	4.631302e-01	6.540494e-02	0.0	4.773789e-01	6.693326e-02	0.0	4.916802e-01	6.813166e-02	0.0	5.059997e-01	6.921315e-02	0.0	5.203197e-01	7.014947e-02	0.0	5.346410e-01	7.065853e-02	0.0	5.489250e-01	7.116626e-02	0.0	5.631627e-01	7.111079e-02	0.0	5.773355e-01	7.088978e-02	0.0	5.914135e-01	7.038977e-02	0.0	6.053618e-01	6.919605e-02	0.0	6.192023e-01	6.801153e-02	0.0	6.327955e-01	6.587230e-02	0.0	6.462218e-01	6.348900e-02	0.0	6.594276e-01	6.080006e-02	0.0	6.722379e-01	5.710361e-02	0.0	6.848866e-01	5.345382e-02	0.0	6.972001e-01	4.934976e-02	0.0	7.092363e-01	4.500040e-02	0.0	7.210869e-01	4.071807e-02	0.0	7.327668e-01	3.656883e-02	0.0	7.442470e-01	3.249421e-02	0.0	7.556255e-01	2.884212e-02	0.0	7.670028e-01	2.596523e-02	0.0	7.781552e-01	2.314517e-02	0.0	7.893401e-01	2.193073e-02	0.0	8.003236e-01	2.096615e-02	0.0	8.110863e-01	2.073331e-02	0.0	8.216175e-01	2.098754e-02	0.0	8.318968e-01	2.131114e-02	0.0	8.419210e-01	2.175062e-02	0.0	8.516940e-01	2.208722e-02	0.0	8.612194e-01	2.181582e-02	0.0	8.704926e-01	2.155161e-02	0.0	8.794786e-01	2.076192e-02	0.0	8.882053e-01	1.984879e-02	0.0	8.966670e-01	1.882859e-02	0.0	9.048486e-01	1.756965e-02	0.0	9.127881e-01	1.634795e-02	0.0	9.204655e-01	1.502492e-02	0.0	9.279023e-01	1.371328e-02	0.0	9.351041e-01	1.242772e-02	0.0	9.420726e-01	1.115660e-02	0.0	9.488163e-01	9.926071e-03	0.0	9.553339e-01	8.706925e-03	0.0	9.616352e-01	7.528250e-03	0.0	9.677207e-01	6.369471e-03	0.0	9.735981e-01	5.246679e-03	0.0	9.792697e-01	4.146434e-03	0.0	9.847420e-01	3.078265e-03	0.0	9.900190e-01	2.036248e-03	0.0	9.951044e-01	1.015380e-03	0.0	1.000000e+00	0.000000e+00	0.0	9.950047e-01	2.167264e-04	0.0	9.898205e-01	4.182297e-04	0.0	9.844412e-01	5.691780e-04	0.0	9.788626e-01	6.748079e-04	0.0	9.730804e-01	7.556027e-04	0.0	9.670896e-01	7.773380e-04	0.0	9.608859e-01	7.758202e-04	0.0	9.544650e-01	7.080564e-04	0.0	9.478224e-01	6.237059e-04	0.0	9.409551e-01	4.430026e-04	0.0	9.338573e-01	2.562345e-04	0.0	9.265287e-01	-4.079168e-05	0.0	9.189629e-01	-3.705934e-04	0.0	9.111598e-01	-7.843725e-04	0.0	9.031190e-01	-1.331721e-03	0.0	8.948312e-01	-1.895883e-03	0.0	8.863179e-01	-2.752859e-03	0.0	8.775566e-01	-3.668618e-03	0.0	8.685679e-01	-4.802195e-03	0.0	8.593593e-01	-6.222592e-03	0.0	8.499037e-01	-7.711483e-03	0.0	8.402902e-01	-9.755826e-03	0.0	8.304269e-01	-1.185326e-02	0.0	8.203949e-01	-1.434286e-02	0.0	8.101426e-01	-1.699912e-02	0.0	7.996846e-01	-1.985298e-02	0.0	7.890278e-01	-2.291920e-02	0.0	7.781403e-01	-2.606650e-02	0.0	7.670490e-01	-2.937230e-02	0.0	7.557323e-01	-3.274528e-02	0.0	7.441610e-01	-3.606513e-02	0.0	7.323572e-01	-3.938498e-02	0.0	7.203305e-01	-4.270698e-02	0.0	7.079828e-01	-4.562066e-02	0.0	6.954401e-01	-4.858034e-02	0.0	6.826158e-01	-5.110697e-02	0.0	6.695325e-01	-5.326292e-02	0.0	6.562800e-01	-5.544341e-02	0.0	6.427402e-01	-5.661740e-02	0.0	6.290527e-01	-5.780420e-02	0.0	6.152072e-01	-5.862127e-02	0.0	6.012163e-01	-5.906497e-02	0.0	5.871154e-01	-5.950312e-02	0.0	5.729114e-01	-5.951184e-02	0.0	5.586254e-01	-5.952061e-02	0.0	5.442721e-01	-5.944404e-02	0.0	5.298663e-01	-5.929737e-02	0.0	5.154227e-01	-5.914635e-02	0.0	5.009567e-01	-5.895362e-02	0.0	4.864831e-01	-5.876078e-02	0.0	4.720170e-01	-5.857083e-02	0.0	4.575738e-01	-5.838282e-02	0.0	4.431684e-01	-5.820546e-02	0.0	4.288153e-01	-5.807803e-02	0.0	4.145298e-01	-5.795120e-02	0.0	4.003263e-01	-5.799781e-02	0.0	3.862189e-01	-5.811394e-02	0.0	3.722254e-01	-5.836894e-02	0.0	3.583671e-01	-5.904355e-02	0.0	3.446445e-01	-5.971156e-02	0.0	3.311263e-01	-6.106229e-02	0.0	3.177833e-01	-6.259561e-02	0.0	3.046501e-01	-6.437246e-02	0.0	2.917972e-01	-6.679074e-02	0.0	2.791323e-01	-6.917367e-02	0.0	2.666786e-01	-7.159473e-02	0.0	2.544346e-01	-7.400059e-02	0.0	2.423725e-01	-7.617053e-02	0.0	2.304155e-01	-7.756814e-02	0.0	2.186867e-01	-7.893908e-02	0.0	2.071503e-01	-7.891619e-02	0.0	1.958348e-01	-7.828003e-02	0.0	1.848135e-01	-7.731204e-02	0.0	1.742661e-01	-7.480455e-02	0.0	1.639625e-01	-7.235501e-02	0.0	1.541029e-01	-6.929689e-02	0.0	1.446109e-01	-6.589326e-02	0.0	1.353592e-01	-6.257578e-02	0.0	1.264840e-01	-5.898888e-02	0.0	1.178504e-01	-5.548523e-02	0.0	1.094428e-01	-5.210282e-02	0.0	1.012472e-01	-4.887304e-02	0.0	9.328621e-02	-4.573566e-02	0.0	8.552931e-02	-4.276361e-02	0.0	7.799151e-02	-3.991138e-02	0.0	7.067683e-02	-3.716137e-02	0.0	6.356657e-02	-3.455482e-02	0.0	5.667996e-02	-3.203026e-02	0.0	5.000528e-02	-2.960907e-02	0.0	4.354635e-02	-2.726922e-02	0.0	3.734107e-02	-2.489754e-02	0.0	3.135224e-02	-2.258095e-02	0.0	2.572326e-02	-1.997411e-02	0.0	2.038380e-02	-1.727561e-02	0.0	1.546638e-02	-1.423256e-02	0.0	1.097102e-02	-1.094452e-02	0.0	6.791922e-03	-7.555453e-03	0.0	3.115970e-03	-3.894232e-03	0.0	8.459607e-01	-1.657884e-02	0.0	8.651867e+01	2.687719e+01	0.0	8.259274e+01	2.056869e+01	0.0	8.876983e+01	1.754692e+01	0.0	7.573922e+01	-1.257646e+01	0.0	7.575456e+01	-2.492769e+01	0.0	8.706087e+01	-1.793612e+01	0.0	8.618580e+01	-5.021287e+00	0.0	3.094055e+01	3.541152e+01	0.0	2.788010e+01	2.432809e+01	0.0	3.851227e+01	2.797584e+01	0.0	8.206869e+01	3.546134e+01	0.0	7.311951e+01	3.364341e+01	0.0	7.625958e+01	2.479403e+01	0.0	6.865798e+01	-3.606254e+01	0.0	7.557522e+01	-4.408675e+01	0.0	8.118978e+01	-3.646635e+01	0.0	8.668527e+01	-2.844446e+01	0.0	4.857759e+01	3.074924e+01	0.0	5.778429e+01	3.249513e+01	0.0	5.403023e+01	4.017866e+01	0.0	5.663826e+01	-5.335342e+01	0.0	6.206147e+01	-5.988828e+01	0.0	6.589378e+01	-5.459697e+01	0.0	6.869555e+01	5.940724e+01	0.0	7.322925e+01	5.043004e+01	0.0	5.688095e+01	6.419979e+01	0.0	4.924595e+01	-6.251324e+01	0.0	4.402409e+01	-7.204010e+01	0.0	5.418608e+01	-7.160423e+01	0.0	6.656298e+01	-4.666409e+01	0.0	5.082550e+01	7.474174e+01	0.0	2.723722e+01	5.410578e+01	0.0	2.039263e+01	6.358819e+01	0.0	1.640016e+01	5.152084e+01	0.0	5.682857e+01	-6.298451e+01	0.0	2.862366e+01	7.453808e+01	0.0	4.014319e+01	7.884848e+01	0.0	3.022383e+01	8.527539e+01	0.0	3.248648e+01	-6.966582e+01	0.0	2.584068e+01	-7.802108e+01	0.0	3.766581e+01	-8.070619e+01	0.0	-3.604541e-01	4.527710e+01	0.0	-7.672067e-01	5.431429e+01	0.0	-9.938498e+00	5.028980e+01	0.0	9.577172e+00	7.814709e+01	0.0	1.789151e+01	7.505618e+01	0.0	1.597103e+01	8.244498e+01	0.0	1.100288e+01	4.080779e+01	0.0	7.121815e+00	5.001327e+01	0.0	3.810176e+00	1.329637e+00	0.0	5.293718e+00	1.431356e+00	0.0	4.468286e+00	2.865839e+00	0.0	2.750944e+00	2.414631e+00	0.0	1.885275e+00	1.531298e+00	0.0	2.791950e+00	1.388479e+00	0.0	1.083417e+00	-2.049737e-01	0.0	1.148715e+00	-2.845309e-01	0.0	1.146293e+00	-1.513881e-01	0.0	9.916999e-01	-3.130948e-03	0.0	1.201386e+00	1.993632e-01	0.0	1.301258e+00	3.216737e-01	0.0	1.155742e+00	2.937391e-01	0.0	1.013198e+00	1.188670e-02	0.0	1.017783e+00	3.440534e-03	0.0	1.022876e+00	1.019180e-02	0.0	1.032505e+00	1.634008e-02	0.0	1.037617e+00	2.984638e-02	0.0	1.021680e+00	2.799078e-02	0.0	9.967903e-01	6.964068e-03	0.0	9.926938e-01	5.015421e-03	0.0	9.893286e-01	5.581891e-03	0.0	9.897166e-01	1.401556e-02	0.0	9.839747e-01	1.312748e-02	0.0	9.872120e-01	8.781286e-03	0.0	9.769565e-01	2.509214e-02	0.0	9.777650e-01	3.613695e-02	0.0	9.697691e-01	3.065413e-02	0.0
[...]
POINT_DATA 1836

SCALARS Density double 1
LOOKUP_TABLE default
1.291636e+00	1.291699e+00	1.292059e+00	1.292206e+00	1.292140e+00	1.292083e+00	1.292056e+00	1.292014e+00	1.291965e+00	1.291920e+00	1.291885e+00	1.291870e+00	1.291878e+00	1.291923e+00	1.291989e+00	1.292060e+00	1.292122e+00	1.292169e+00	1.292206e+00	1.292233e+00	1.292253e+00	1.292267e+00	1.292278e+00	1.292288e+00	1.292295e+00	1.292304e+00	1.292313e+00	1.292324e+00	1.292337e+00	1.292354e+00	1.292377e+00	1.292405e+00	1.292442e+00	1.292488e+00	1.292541e+00	1.292600e+00	1.292665e+00	1.292710e+00	1.292718e+00	1.292694e+00	1.292652e+00	1.292595e+00	1.292539e+00	1.292479e+00	1.292423e+00	1.292381e+00	1.292391e+00	1.292313e+00	1.291978e+00	1.539194e+00	1.156428e+00	1.139594e+00	1.084776e+00	1.057281e+00	1.024095e+00	1.005074e+00	9.793861e-01	9.629533e-01	9.389861e-01	9.254356e-01	9.036599e-01	8.895756e-01	8.723368e-01	8.592608e-01	8.523689e-01	8.502982e-01	8.592106e-01	8.771188e-01	9.044177e-01	9.258174e-01	9.328220e-01	9.334694e-01	9.092072e-01	8.780873e-01	8.569122e-01	8.145591e-01	7.834151e-01	7.500019e-01	7.439516e-01	8.735536e-01	1.134217e+00	1.213338e+00	1.236554e+00	1.247297e+00	1.252747e+00	1.267408e+00	1.262013e+00	1.253487e+00	1.246990e+00	1.225213e+00	1.209193e+00	1.189868e+00	1.163039e+00	1.139414e+00	1.116505e+00	1.087226e+00	1.063423e+00	1.037778e+00	1.009479e+00	9.898929e-01	9.558822e-01	9.281750e-01	8.946958e-01	8.557602e-01	8.307831e-01	7.837151e-01	7.460427e-01	7.009311e-01	6.468075e-01	6.151589e-01	5.545554e-01	5.671910e-01	7.334194e-01	1.060250e+00	1.167027e+00	1.197552e+00	1.216379e+00	1.234641e+00	1.252632e+00	1.256221e+00	1.265246e+00	1.268218e+00	1.258805e+00	1.256869e+00	1.244392e+00	1.230324e+00	1.217845e+00	1.197900e+00	1.188682e+00	1.184379e+00	1.179887e+00	1.188225e+00	1.188751e+00	1.196031e+00	1.203840e+00	1.209239e+00	1.216922e+00	1.222244e+00	1.227676e+00	1.232378e+00	1.237113e+00	1.241718e+00	1.246030e+00	1.250732e+00	1.254853e+00	1.260135e+00	1.266866e+00	1.259542e+00	1.280835e+00	1.362149e+00	1.342833e+00	1.342940e+00	1.348297e+00	1.348265e+00	1.351279e+00	1.352379e+00	1.354868e+00	1.356144e+00	1.357846e+00	1.359683e+00	1.360552e+00	1.363801e+00	1.363909e+00	1.367857e+00	1.369152e+00	1.368400e+00	1.371764e+00	1.367816e+00	1.370330e+00	1.366628e+00	1.360790e+00	1.356330e+00	1.346072e+00	1.337798e+00	1.325138e+00	1.312034e+00	1.297916e+00	1.277844e+00	1.258614e+00	1.239625e+00	1.208290e+00	1.185651e+00	1.158627e+00	1.126978e+00	1.111540e+00	1.071753e+00	1.059743e+00	1.072710e+00	1.072934e+00	1.092111e+00	1.103974e+00	1.119596e+00	1.142508e+00	1.155582e+00	1.169845e+00	1.181724e+00	1.190618e+00	1.201232e+00	1.210033e+00	1.218643e+00	1.227211e+00	1.234176e+00	1.242081e+00	1.249576e+00	1.255474e+00	1.265718e+00	1.267439e+00	1.272679e+00	1.276857e+00	1.267374e+00	1.269357e+00	1.252984e+00	1.243073e+00	1.207531e+00	1.081039e+00	7.419898e-01	6.288475e-01	6.225908e-01	6.781681e-01	7.776734e-01	8.132012e-01	9.205624e-01	1.034011e+00	1.092001e+00	1.172723e+00	1.221449e+00	1.265228e+00	1.315587e+00	1.348167e+00	1.372672e+00	1.392554e+00	1.410262e+00	1.422571e+00	1.436199e+00	1.447157e+00	1.456922e+00	1.466725e+00	1.473055e+00	1.483386e+00	1.488075e+00	1.498916e+00	1.520590e+00	1.544481e+00	1.580998e+00	1.613322e+00	1.619924e+00	1.680150e+00	1.365661e+00	1.292110e+00	1.291995e+00	1.291953e+00	1.292148e+00	1.292322e+00	1.292200e+00	1.291887e+00	1.291801e+00	1.291832e+00	1.291965e+00	1.292144e+00	1.292133e+00	1.292078e+00	1.292392e+00	1.292385e+00	1.292354e+00	1.292324e+00	1.292032e+00	1.292074e+00	1.292009e+00	1.292491e+00	1.292488e+00	1.292454e+00	1.292046e+00	1.292070e+00	1.291994e+00	1.292562e+00	1.292612e+00	1.292556e+00	1.292417e+00	1.291962e+00	1.291774e+00	1.291734e+00	1.291620e+00	1.292522e+00	1.291839e+00	1.291907e+00	1.291872e+00	1.292689e+00	1.292724e+00	1.292661e+00	1.291438e+00	1.291561e+00	1.291598e+00	1.291778e+00	1.291782e+00	1.291808e+00	1.291362e+00	1.291496e+00	1.292824e+00	1.290218e+00	1.290997e+00	1.287174e+00	1.284471e+00	1.293016e+00	1.336931e+00	1.321680e+00	1.329878e+00	1.327359e+00	1.319660e+00	1.304749e+00	1.296020e+00	1.279644e+00	1.277378e+00	1.264436e+00	1.278054e+00	1.297109e+00	1.289672e+00	1.273054e+00	1.273225e+00	1.264952e+00	1.272507e+00	1.267289e+00	1.267194e+00	1.272185e+00	1.281781e+00	1.272333e+00	1.284112e+00	1.276722e+00	1.293514e+00	1.208257e+00	1.223066e+00	1.279086e+00	1.271243e+00	1.267787e+00	1.368511e+00	1.369885e+00	1.372796e+00	1.368969e+00	1.350324e+00	1.342937e+00	1.355027e+00	1.223258e+00	1.240700e+00	1.247717e+00	1.236165e+00	1.203798e+00	1.200491e+00	1.184336e+00	1.113781e+00	1.138070e+00	1.160961e+00	1.179718e+00	1.156567e+00	1.188136e+00	1.177842e+00	1.153687e+00	1.142339e+00	1.147708e+00	1.119516e+00	1.222336e+00	1.130552e+00	1.162134e+00	1.137295e+00	1.064794e+00	1.053842e+00	1.201124e+00	1.227957e+00	1.221308e+00	1.083695e+00	1.062555e+00	1.094330e+00	1.254521e+00	1.256309e+00	1.050197e+00	1.015184e+00	1.030528e+00	1.261959e+00	1.001271e+00	1.048389e+00	8.936353e-01	9.299160e-01	8.972562e-01	1.048812e+00	1.011626e+00	9.818161e-01	1.255965e+00	9.558264e-01	9.735590e-01	9.844802e-01	7.935519e-01	9.228471e-01	9.175613e-01	8.791259e-01	1.226880e+00	1.366931e+00	1.247057e+00	1.267183e+00	1.254460e+00	1.228942e+00	1.248672e+00	1.235434e+00	1.232109e+00	1.211483e+00	1.214182e+00	1.196996e+00	1.241862e+00	1.251499e+00	1.261312e+00	1.197974e+00	1.206940e+00	1.280181e+00	1.281102e+00	1.286522e+00	1.290788e+00	1.291164e+00	1.290878e+00	1.268013e+00	1.255251e+00	1.269442e+00	1.223625e+00	1.224643e+00	1.215938e+00	1.222845e+00	1.282804e+00	1.286118e+00	1.278357e+00	8.824201e-01	9.852701e-01	1.008574e+00	1.252619e+00	1.231506e+00	1.237716e+00	1.269988e+00	1.245671e+00	1.211057e+00	1.240149e+00	1.246906e+00	1.517283e+00	1.511766e+00	1.500660e+00	1.543660e+00	1.549551e+00	1.570872e+00	1.248244e+00	1.246885e+00	1.242981e+00	1.283626e+00	1.278429e+00	1.273652e+00	7.977146e-01	7.096599e-01	8.091414e-01	1.295405e+00	1.244710e+00	1.266735e+00	1.235344e+00	1.257498e+00	1.250375e+00	1.279614e+00	1.287712e+00	1.314415e+00	1.289416e+00	1.310790e+00	1.267351e+00	1.105557e+00	1.284373e+00	1.284980e+00	1.280609e+00	1.280038e+00	1.359156e+00	1.357926e+00	1.365498e+00	1.369417e+00	1.366999e+00	1.363351e+00	1.361378e+00	1.307397e+00	1.302607e+00	1.312469e+00	1.278886e+00	1.271306e+00	1.273945e+00	1.266435e+00	1.254562e+00	1.260655e+00	1.264907e+00	1.262557e+00	1.262543e+00	1.251872e+00	1.267282e+00	1.338466e+00	1.351320e+00	1.333417e+00	1.251142e+00	1.210491e+00	1.243876e+00	1.213704e+00	1.259152e+00	1.231647e+00	1.232795e+00	1.239821e+00	1.231104e+00	1.222195e+00	1.210009e+00	1.196766e+00	1.483108e+00	1.473318e+00	1.501644e+00	1.503052e+00	1.494048e+00	1.490621e+00	1.571383e+00	1.342571e+00	1.357712e+00	1.350979e+00	1.276651e+00	1.292140e+00	1.254169e+00	1.185127e+00	1.187387e+00	1.066872e+00	1.107053e+00	1.182289e+00	1.273470e+00	1.191385e+00	1.291616e+00	9.462410e-01	5.836565e-01	5.995537e-01	8.340486e-01	8.637414e-01	1.235770e+00	1.260351e+00	1.255434e+00	6.949888e-01	6.344623e-01	7.206101e-01	1.291978e+00	1.291908e+00	7.571263e-01	7.996550e-01	1.234502e+00	1.236010e+00	8.886255e-01	8.602710e-01	1.004914e+00	9.560320e-01	7.825029e-01	1.060553e+00	1.032422e+00	1.108016e+00	7.598159e-01	7.803514e-01	8.828985e-01	8.624825e-01	9.070438e-01	1.291894e+00	9.140055e-01	9.487778e-01	9.518783e-01	9.618905e-01	1.205077e+00	1.231419e+00	1.216067e+00	1.289147e+00	1.287589e+00	1.286386e+00	9.749522e-01	9.783086e-01	9.659805e-01	8.811471e-01	9.091853e-01	8.976639e-01	1.292029e+00	9.422528e-01	1.003864e+00	9.722328e-01	9.120127e-01	8.991216e-01	1.289709e+00	1.285251e+00	1.138494e+00	1.175775e+00	1.079006e+00	1.292106e+00	9.515835e-01	9.159001e-01	9.485152e-01	1.292199e+00	1.291757e+00	1.291472e+00	1.291463e+00	1.292128e+00	1.292107e+00	1.291897e+00	1.292328e+00	1.292326e+00	1.292277e+00	1.292181e+00	1.292217e+00	1.292189e+00	1.128544e+00	1.157848e+00	1.216807e+00	1.039173e+00	1.003254e+00	1.029287e+00	1.292249e+00	1.292210e+00	1.292253e+00	1.292282e+00	1.292272e+00	1.292277e+00	1.292234e+00	1.292261e+00	1.292310e+00	1.292324e+00	1.292330e+00	1.292343e+00	1.292423e+00	1.292415e+00	1.292384e+00	1.292378e+00	1.292351e+00	1.292422e+00	1.292490e+00	1.292427e+00	1.292475e+00	1.292276e+00	1.292476e+00	1.293801e+00	1.294663e+00	1.295033e+00	1.297030e+00	1.295752e+00	1.292468e+00	1.311585e+00	1.319159e+00	1.308659e+00	1.353379e+00	1.339420e+00	1.351220e+00	1.292539e+00	1.292994e+00	1.293014e+00	1.293170e+00	1.300992e+00	1.306625e+00	1.304457e+00	1.292642e+00	1.292623e+00	1.292559e+00	1.230597e+00	1.259911e+00	1.340199e+00	1.332960e+00	1.326279e+00	1.351322e+00	1.353748e+00	1.346792e+00	1.311077e+00	1.321978e+00	1.304695e+00	1.318020e+00	1.341529e+00	1.323238e+00	1.323264e+00	1.340568e+00	1.297626e+00	1.295926e+00	1.297070e+00	1.450743e+00	1.459410e+00	1.456945e+00	1.463265e+00	1.469533e+00	1.358336e+00	1.388560e+00	1.364199e+00	1.292815e+00	1.292776e+00	1.292848e+00	1.425600e+00	1.295090e+00	1.294499e+00	1.294236e+00	1.292644e+00	1.328275e+00	1.355365e+00	1.323419e+00	1.278108e+00	1.299797e+00	1.253759e+00	1.301359e+00	1.303921e+00	1.300193e+00	1.187241e+00	1.189714e+00	1.175292e+00	1.292695e+00	1.292727e+00	1.203019e+00	1.182244e+00	1.186839e+00	1.221092e+00	1.218937e+00	1.139023e+00	1.143454e+00	1.162518e+00	1.155341e+00	1.173698e+00	1.157136e+00	1.245307e+00	1.228218e+00	1.226400e+00	1.223895e+00	1.207536e+00	1.241890e+00	1.138236e+00	1.136280e+00	1.099173e+00	1.136073e+00	1.156279e+00	1.302942e+00	1.322530e+00	1.328268e+00	1.166242e+00	1.185765e+00	1.259081e+00	1.282183e+00	1.343369e+00	1.332418e+00	1.169735e+00	1.369284e+00	1.366757e+00	1.371882e+00	1.370762e+00	1.367261e+00	1.185496e+00	1.374122e+00	1.375761e+00	1.371940e+00	1.372235e+00	1.373105e+00	1.240571e+00	1.299599e+00	1.374482e+00	1.292296e+00	9.435326e-01	9.649645e-01	8.985103e-01	1.292832e+00	1.292675e+00	1.292674e+00	1.355845e+00	1.358341e+00	1.358637e+00	1.292879e+00	1.292699e+00	1.292223e+00	1.292850e+00	1.292857e+00	1.291992e+00	1.292068e+00	1.291945e+00	1.293158e+00	1.292526e+00	1.291915e+00	1.291879e+00	1.291846e+00	1.291830e+00	1.291808e+00	1.291743e+00	1.291938e+00	1.292461e+00	1.292413e+00	1.291960e+00	1.292027e+00	1.292190e+00	1.293049e+00	1.292603e+00	1.292790e+00	1.290112e+00	1.290132e+00	1.283403e+00	1.292214e+00	1.292212e+00	1.293104e+00	1.293006e+00	1.293387e+00	1.307039e+00	1.313371e+00	1.291751e+00	1.291455e+00	1.292171e+00	1.291821e+00	1.291075e+00	1.290568e+00	1.291554e+00	1.288793e+00	1.290085e+00	1.289581e+00	1.292952e+00	1.292496e+00	1.292521e+00	1.292676e+00	1.292757e+00	1.292692e+00	1.292793e+00	1.292316e+00	1.292327e+00	1.292344e+00	1.292126e+00	1.291851e+00	1.291815e+00	1.292744e+00	1.292755e+00	1.292104e+00	1.292064e+00	1.292012e+00	1.291873e+00	1.291835e+00	1.291921e+00	1.291967e+00	1.291887e+00	1.291901e+00	1.291878e+00	1.292273e+00	1.292371e+00	1.292693e+00	1.292829e+00	1.292828e+00	1.292387e+00	1.292370e+00	1.292390e+00	1.291800e+00	1.291767e+00	1.292383e+00	1.293729e+00	1.291626e+00	1.291581e+00	1.291937e+00	1.292357e+00	1.291923e+00	1.291784e+00	1.291894e+00	1.292140e+00	1.292169e+00	1.292403e+00	1.292475e+00	1.291538e+00	1.291689e+00	1.292894e+00	1.292734e+00	1.293713e+00	1.293447e+00	1.293857e+00	1.292201e+00	1.292435e+00	1.291713e+00	1.291913e+00	1.291187e+00	1.291082e+00	1.291842e+00	1.290693e+00	1.291814e+00	1.291404e+00	1.294820e+00	1.296286e+00	1.290824e+00	1.279307e+00	1.273020e+00	1.292051e+00	1.292131e+00	1.292280e+00	1.292232e+00	1.292434e+00	1.292369e+00	1.292304e+00	1.292300e+00	1.292348e+00	1.292145e+00	1.292059e+00	1.292734e+00	1.292732e+00	1.291748e+00	1.291798e+00	1.292728e+00	1.291832e+00	1.291914e+00	1.292776e+00	1.292778e+00	1.292026e+00	1.292391e+00	1.292435e+00	1.292508e+00	1.292508e+00	1.292571e+00	1.291674e+00	1.292578e+00	1.292656e+00	1.292542e+00	1.292901e+00	1.291714e+00	1.292386e+00	1.292594e+00	1.292063e+00	1.292488e+00	1.292548e+00	1.292534e+00	1.292460e+00	1.292600e+00	1.292572e+00	1.292486e+00	1.291586e+00	1.291935e+00	1.291960e+00	1.291925e+00	1.289931e+00	1.297566e+00	1.279930e+00	1.294611e+00	1.291634e+00	1.292518e+00	1.292475e+00	1.291998e+00	1.292326e+00	1.291997e+00	1.292089e+00	1.291979e+00	1.291672e+00	1.293007e+00	1.292889e+00	1.291831e+00	1.292632e+00	1.291976e+00	1.292816e+00	1.292922e+00	1.291969e+00	1.291938e+00	1.291834e+00	1.293772e+00	1.386629e+00	1.292707e+00	9.408820e-01	1.292826e+00	1.293270e+00	1.292949e+00	1.293675e+00	1.293051e+00	1.290871e+00	1.293076e+00	1.293393e+00	1.292081e+00	1.290875e+00	1.548898e+00	1.560215e+00	1.581304e+00	1.293369e+00	1.294175e+00	1.283887e+00	1.279677e+00	1.285926e+00	1.289245e+00	1.290992e+00	1.293412e+00	1.294815e+00	1.293979e+00	1.294608e+00	1.294217e+00	1.286919e+00	1.287966e+00	1.293080e+00	1.292103e+00	1.290135e+00	9.937704e-01	9.925492e-01	9.542150e-01	1.290423e+00	1.295429e+00	1.295462e+00	1.291756e+00	1.294507e+00	1.293871e+00	1.291288e+00	1.293019e+00	1.290533e+00	1.289201e+00	1.287320e+00	1.297192e+00	1.296876e+00	1.299616e+00	1.288888e+00	1.295867e+00	1.292564e+00	1.292930e+00	1.081664e+00	1.075853e+00	1.039425e+00	1.114586e+00	1.299485e+00	1.299189e+00	1.297695e+00	1.295104e+00	1.292147e+00	1.302719e+00	1.297091e+00	1.298691e+00	1.294114e+00	1.298261e+00	1.296288e+00	1.292853e+00	1.293906e+00	1.197041e+00	1.180816e+00	1.222097e+00	1.277877e+00	1.270813e+00	1.350227e+00	1.349917e+00	1.320270e+00	1.345997e+00	1.369029e+00	1.285560e+00	1.287765e+00	1.289151e+00	1.283012e+00	1.298817e+00	1.326821e+00	1.245111e+00	1.278431e+00	1.288981e+00	1.295118e+00	1.293027e+00	1.282353e+00	1.205784e+00	1.171624e+00	1.277991e+00	1.295006e+00	1.293717e+00	1.284142e+00	1.260526e+00	1.272406e+00	1.278541e+00	1.375607e+00	1.370408e+00	1.298849e+00	1.282507e+00	1.271680e+00	1.295625e+00	1.292086e+00	1.289807e+00	1.284185e+00	1.292485e+00	1.001219e+00	1.267663e+00	1.302634e+00	1.300459e+00	1.299792e+00	1.262896e+00	1.261315e+00	1.303068e+00	1.294368e+00	1.303016e+00	1.298050e+00	1.300065e+00	1.304342e+00	1.300786e+00	1.350200e+00	1.367394e+00	1.375421e+00	1.311794e+00	1.304169e+00	1.257407e+00	1.251890e+00	1.134612e+00	1.212196e+00	1.297941e+00	1.293551e+00	1.291565e+00	1.299469e+00	1.301061e+00	1.298303e+00	9.544923e-01	1.071190e+00	1.018483e+00	1.029730e+00	1.299009e+00	1.176956e+00	1.164619e+00	1.085055e+00	1.301922e+00	1.309184e+00	1.307965e+00	1.299473e+00	1.313915e+00	1.254898e+00	1.296596e+00	1.296164e+00	1.267556e+00	1.279349e+00	1.315934e+00	1.304228e+00	1.267678e+00	1.221758e+00	1.143872e+00	1.107658e+00	1.128966e+00	1.307169e+00	1.305049e+00	1.291851e+00	1.396303e+00	1.435088e+00	1.418945e+00	1.146149e+00	1.134843e+00	8.397788e-01	8.556031e-01	7.864195e-01	1.279752e+00	1.269500e+00	1.263489e+00	1.284569e+00	1.315312e+00	1.310892e+00	1.248382e+00	1.258473e+00	1.289542e+00	8.799015e-01	8.762506e-01	8.665068e-01	1.306022e+00	1.288420e+00	1.318849e+00	1.298791e+00	1.254983e+00	1.270254e+00	1.319775e+00	1.329868e+00	1.331229e+00	1.302303e+00	1.317173e+00	1.306886e+00	1.249874e+00	1.297866e+00	1.269710e+00	1.320717e+00	1.271820e+00	9.244301e-01	9.370352e-01	1.261695e+00	1.172571e+00	1.282856e+00	1.322143e+00	1.333073e+00	1.344923e+00	1.177233e+00	1.345575e+00	1.316398e+00	1.314073e+00	1.334759e+00	1.284339e+00	1.212007e+00	1.128495e+00	1.208737e+00	1.131043e+00	1.290460e+00	1.317704e+00	1.373500e+00	1.577502e+00	1.353423e+00	1.291560e+00	1.283264e+00	1.266459e+00	1.172005e+00	1.023967e+00	9.245348e-01	1.004563e+00	1.260979e+00	1.317936e+00	1.296757e+00	1.121380e+00	1.112634e+00	1.188037e+00	1.226836e+00	1.262850e+00	1.371446e+00	1.404677e+00	1.394812e+00	1.316916e+00	1.296163e+00	1.310652e+00	1.304140e+00	1.336849e+00	1.336588e+00	1.347294e+00	1.163426e+00	1.160454e+00	1.168035e+00	9.878940e-01	1.012037e+00	1.469861e+00	1.430867e+00	1.448127e+00	1.368418e+00	1.214465e+00	1.297485e+00	6.502224e-01	6.696948e-01	6.256839e-01	1.332885e+00	1.302607e+00	1.311776e+00	1.289852e+00	1.279955e+00	1.245134e+00	1.021261e+00	1.197310e+00	1.238718e+00	1.168728e+00	1.163057e+00	1.240511e+00	1.196233e+00	1.210026e+00	1.304223e+00	1.326852e+00	1.298309e+00	1.089021e+00	1.099864e+00	1.305219e+00	1.119081e+00	1.128790e+00	1.183688e+00	1.341757e+00	1.329578e+00	1.342496e+00	1.339087e+00	1.019820e+00	7.991640e-01	1.238313e+00	1.153343e+00	1.325180e+00	1.361724e+00	1.351497e+00	1.371977e+00	1.393848e+00	1.396261e+00	1.421924e+00	1.269069e+00	1.296854e+00	1.283764e+00	1.324035e+00	1.295023e+00	1.286175e+00	1.144821e+00	1.276402e+00	1.263771e+00	1.344587e+00	1.349658e+00	1.280252e+00	1.330271e+00	1.055761e+00	1.125252e+00	7.335591e-01	7.152328e-01	1.351386e+00	1.376002e+00	1.395622e+00	1.147241e+00	1.178306e+00	1.155586e+00	1.438997e+00	1.422518e+00	1.406996e+00	1.435772e+00	1.457436e+00	9.243629e-01	8.814320e-01	1.153694e+00	1.091113e+00	1.246618e+00	1.254009e+00	1.211262e+00	1.204737e+00	1.355055e+00	1.350626e+00	1.238942e+00	1.095490e+00	1.109955e+00	1.030293e+00	1.263265e+00	1.273622e+00	1.364006e+00	1.271435e+00	1.303405e+00	9.969429e-01	1.045765e+00	1.320606e+00	6.998080e-01	6.448936e-01	1.238224e+00	1.153966e+00	1.203305e+00	1.263431e+00	1.344639e+00	1.323608e+00	8.225821e-01	7.698208e-01	7.711122e-01	1.331617e+00	1.341522e+00	1.204039e+00	1.207933e+00	1.282979e+00	1.293360e+00	1.295854e+00	1.313817e+00	1.278667e+00	1.279269e+00	1.288557e+00	1.276537e+00	1.267330e+00	8.700438e-01	8.858360e-01	1.000606e+00	9.820686e-01	1.262697e+00	1.193908e+00	1.384012e+00	1.359593e+00	1.287722e+00	1.494007e+00	1.490063e+00	1.468060e+00	9.375541e-01	1.209230e+00	1.226965e+00	1.218353e+00	1.208492e+00	1.376954e+00	1.365947e+00	1.375930e+00	1.251428e+00	1.187820e+00	1.165156e+00	1.089609e+00	1.185021e+00	1.282576e+00	1.281665e+00	1.271133e+00	1.271098e+00	1.277203e+00	1.289751e+00	1.365352e+00	1.342281e+00	1.171403e+00	1.316407e+00	9.966206e-01	8.681642e-01	9.110061e-01	1.360459e+00	1.365023e+00	1.279241e+00	6.354347e-01	1.206984e+00	1.191171e+00	1.241613e+00	1.286373e+00	1.261852e+00	1.260275e+00	1.297441e+00	1.284889e+00	1.289894e+00	1.396318e+00	1.434846e+00	1.226615e+00	1.240396e+00	1.217121e+00	1.217520e+00	8.513793e-01	9.607208e-01	1.227008e+00	1.225430e+00	9.394767e-01	9.816969e-01	1.010978e+00	1.066721e+00	1.115956e+00	1.067749e+00	1.398961e+00	1.347440e+00	1.081302e+00	1.232540e+00	1.188132e+00	1.197843e+00	1.236823e+00	1.245111e+00	1.214013e+00	1.228097e+00	1.249311e+00	1.271640e+00	1.267306e+00	1.375503e+00	1.370268e+00	1.347717e+00	1.205156e+00	1.276218e+00	1.255524e+00	1.281079e+00	1.343157e+00	1.457766e+00	1.022994e+00	1.266323e+00	1.223389e+00	1.311534e+00	9.792162e-01	1.007683e+00	1.233670e+00	1.100218e+00	1.271985e+00	1.279802e+00	1.277268e+00	1.172654e+00	1.373823e+00	1.208407e+00	1.236205e+00	1.268500e+00	9.312409e-01	9.680908e-01	9.785470e-01	1.356256e+00	1.357878e+00	1.350630e+00	9.222848e-01	9.227288e-01	1.024392e+00	9.744893e-01	1.126369e+00	8.205228e-01	8.990820e-01	1.259382e+00	1.372617e+00	1.376306e+00	9.339697e-01	9.093644e-01	1.077981e+00	1.258245e+00	1.003508e+00	9.199640e-01	1.253488e+00	1.263823e+00	1.127114e+00	1.101198e+00	1.407306e+00	1.247569e+00	1.239530e+00	1.237666e+00	1.234099e+00	1.203891e+00	1.219740e+00	1.199291e+00	1.234734e+00	1.026774e+00	9.136312e-01	1.363886e+00	1.283160e+00	1.240458e+00	1.246978e+00	1.255589e+00	1.181092e+00	1.117581e+00	8.634155e-01	8.733836e-01	1.294577e+00	1.305749e+00	1.299996e+00	7.704198e-01	1.422924e+00	1.414462e+00	1.410217e+00	1.269664e+00	1.254340e+00	1.255025e+00	1.266724e+00	1.290595e+00	1.290668e+00	1.290465e+00	9.481299e-01	8.217982e-01	7.996250e-01	1.314186e+00	1.284423e+00	1.272483e+00	1.233959e+00	1.229629e+00	1.208545e+00	1.482095e+00	1.597627e+00	1.621311e+00	1.615988e+00	1.308442e+00	1.168450e+00	9.950123e-01	1.212446e+00	1.249469e+00	1.199495e+00	9.609117e-01	9.712979e-01	1.283140e+00	1.171788e+00	1.106814e+00	1.147159e+00	1.114922e+00	1.367586e+00	1.362376e+00	1.280519e+00	1.274475e+00	1.267128e+00	1.268587e+00	1.456671e+00	1.273793e+00	1.273744e+00	8.858712e-01	1.055136e+00	1.377309e+00	1.376447e+00	1.109910e+00	1.086574e+00	1.280414e+00	1.072706e+00	1.459418e+00	1.473209e+00	1.491171e+00	1.372074e+00	1.376850