# vtk DataFile Version 3.0
vtk output
ASCII
DATASET UNSTRUCTURED_GRID
POINTS 198 double
0.000000e+00	0.000000e+00	0.0	3.297208e-03	3.758779e-03	0.0	6.820441e-03	7.543636e-03	0.0	1.122136e-02	1.063614e-02	0.0	1.584472e-02	1.373956e-02	0.0	2.099763e-02	1.635194e-02	0.0	2.636407e-02	1.899282e-02	0.0	3.211316e-02	2.130027e-02	0.0	3.808670e-02	2.362167e-02	0.0	4.438220e-02	2.570311e-02	0.0	5.092223e-02	2.775081e-02	0.0	5.775233e-02	2.962835e-02	0.0	6.484620e-02	3.140986e-02	0.0	7.220435e-02	3.310810e-02	0.0	7.984206e-02	3.464204e-02	0.0	8.773339e-02	3.614179e-02	0.0	9.589411e-02	3.752971e-02	0.0	1.043076e-01	3.890389e-02	0.0	1.129763e-01	4.026176e-02	0.0	1.218976e-01	4.162564e-02	0.0	1.310716e-01	4.300349e-02	0.0	1.405064e-01	4.433821e-02	0.0	1.502095e-01	4.557658e-02	0.0	1.601625e-01	4.684686e-02	0.0	1.704098e-01	4.772205e-02	0.0	1.809069e-01	4.860571e-02	0.0	1.916664e-01	4.921138e-02	0.0	2.026893e-01	4.946514e-02	0.0	2.139531e-01	4.972445e-02	0.0	2.254520e-01	4.945086e-02	0.0	2.371824e-01	4.911256e-02	0.0	2.491383e-01	4.874134e-02	0.0	2.613127e-01	4.831459e-02	0.0	2.737001e-01	4.788037e-02	0.0	2.862993e-01	4.781790e-02	0.0	2.990971e-01	4.784127e-02	0.0	3.120744e-01	4.811589e-02	0.0	3.252085e-01	4.901401e-02	0.0	3.385104e-01	4.992361e-02	0.0	3.519224e-01	5.134903e-02	0.0	3.654654e-01	5.294093e-02	0.0	3.791325e-01	5.461660e-02	0.0	3.928940e-01	5.651003e-02	0.0	4.067626e-01	5.841820e-02	0.0	4.207341e-01	6.027084e-02	0.0	4.347889e-01	6.210966e-02	0.0	4.489187e-01	6.388060e-02	0.0	4.631302e-01	6.540494e-02	0.0	4.773789e-01	6.693326e-02	0.0	4.916802e-01	6.813166e-02	0.0	5.059997e-01	6.921315e-02	0.0	5.203197e-01	7.014947e-02	0.0	5.346410e-01	7.065853e-02	0.0	5.489250e-01	7.116626e-02	0.0	5.631627e-01	7.111079e-02	0.0	5.773355e-01	7.088978e-02	0.0	5.914135e-01	7.038977e-02	0.0	6.053618e-01	6.919605e-02	0.0	6.192023e-01	6.801153e-02	0.0	6.327955e-01	6.587230e-02	0.0	6.462218e-01	6.348900e-02	0.0	6.594276e-01	6.080006e-02	0.0	6.722379e-01	5.710361e-02	0.0	6.848866e-01	5.345382e-02	0.0	6.972001e-01	4.934976e-02	0.0	7.092363e-01	4.500040e-02	0.0	7.210869e-01	4.071807e-02	0.0	7.327668e-01	3.656883e-02	0.0	7.442470e-01	3.249421e-02	0.0	7.556255e-01	2.884212e-02	0.0	7.670028e-01	2.596523e-02	0.0	7.781552e-01	2.314517e-02	0.0	7.893401e-01	2.193073e-02	0.0	8.003236e-01	2.096615e-02	0.0	8.110863e-01	2.073331e-02	0.0	8.216175e-01	2.098754e-02	0.0	8.318968e-01	2.131114e-02	0.0	8.419210e-01	2.175062e-02	0.0	8.516940e-01	2.208722e-02	0.0	8.612194e-01	2.181582e-02	0.0	8.704926e-01	2.155161e-02	0.0	8.794786e-01	2.076192e-02	0.0	8.882053e-01	1.984879e-02	0.0	8.966670e-01	1.882859e-02	0.0	9.048486e-01	1.756965e-02	0.0	9.127881e-01	1.634795e-02	0.0	9.204655e-01	1.502492e-02	0.0	9.279023e-01	1.371328e-02	0.0	9.351041e-01	1.242772e-02	0.0	9.420726e-01	1.115660e-02	0.0	9.488163e-01	9.926071e-03	0.0	9.553339e-01	8.706925e-03	0.0	9.616352e-01	7.528250e-03	0.0	9.677207e-01	6.369471e-03	0.0	9.735981e-01	5.246679e-03	0.0	9.792697e-01	4.146434e-03	0.0	9.847420e-01	3.078265e-03	0.0	9.900190e-01	2.036248e-03	0.0	9.951044e-01	1.015380e-03	0.0	1.000000e+00	0.000000e+00	0.0	9.950047e-01	2.167264e-04	0.0	9.898205e-01	4.182297e-04	0.0	9.844412e-01	5.691780e-04	0.0	9.788626e-01	6.748079e-04	0.0	9.730804e-01	7.556027e-04	0.0	9.670896e-01	7.773380e-04	0.0	9.608859e-01	7.758202e-04	0.0	9.544650e-01	7.080564e-04	0.0	9.478224e-01	6.237059e-04	0.0	9.409551e-01	4.430026e-04	0.0	9.338573e-01	2.562345e-04	0.0	9.265287e-01	-4.079168e-05	0.0	9.189629e-01	-3.705934e-04	0.0	9.111598e-01	-7.843725e-04	0.0	9.031190e-01	-1.331721e-03	0.0	8.948312e-01	-1.895883e-03	0.0	8.863179e-01	-2.752859e-03	0.0	8.775566e-01	-3.668618e-03	0.0	8.685679e-01	-4.802195e-03	0.0	8.593593e-01	-6.222592e-03	0.0	8.499037e-01	-7.711483e-03	0.0	8.402902e-01	-9.755826e-03	0.0	8.304269e-01	-1.185326e-02	0.0	8.203949e-01	-1.434286e-02	0.0	8.101426e-01	-1.699912e-02	0.0	7.996846e-01	-1.985298e-02	0.0	7.890278e-01	-2.291920e-02	0.0	7.781403e-01	-2.606650e-02	0.0	7.670490e-01	-2.937230e-02	0.0	7.557323e-01	-3.274528e-02	0.0	7.441610e-01	-3.606513e-02	0.0	7.323572e-01	-3.938498e-02	0.0	7.203305e-01	-4.270698e-02	0.0	7.079828e-01	-4.562066e-02	0.0	6.954401e-01	-4.858034e-02	0.0	6.826158e-01	-5.110697e-02	0.0	6.695325e-01	-5.326292e-02	0.0	6.562800e-01	-5.544341e-02	0.0	6.427402e-01	-5.661740e-02	0.0	6.290527e-01	-5.780420e-02	0.0	6.152072e-01	-5.862127e-02	0.0	6.012163e-01	-5.906497e-02	0.0	5.871154e-01	-5.950312e-02	0.0	5.729114e-01	-5.951184e-02	0.0	5.586254e-01	-5.952061e-02	0.0	5.442721e-01	-5.944404e-02	0.0	5.298663e-01	-5.929737e-02	0.0	5.154227e-01	-5.914635e-02	0.0	5.009567e-01	-5.895362e-02	0.0	4.864831e-01	-5.876078e-02	0.0	4.720170e-01	-5.857083e-02	0.0	4.575738e-01	-5.838282e-02	0.0	4.431684e-01	-5.820546e-02	0.0	4.288153e-01	-5.807803e-02	0.0	4.145298e-01	-5.795120e-02	0.0	4.003263e-01	-5.799781e-02	0.0	3.862189e-01	-5.811394e-02	0.0	3.722254e-01	-5.836894e-02	0.0	3.583671e-01	-5.904355e-02	0.0	3.446445e-01	-5.971156e-02	0.0	3.311263e-01	-6.106229e-02	0.0	3.177833e-01	-6.259561e-02	0.0	3.046501e-01	-6.437246e-02	0.0	2.917972e-01	-6.679074e-02	0.0	2.791323e-01	-6.917367e-02	0.0	2.666786e-01	-7.159473e-02	0.0	2.544346e-01	-7.400059e-02	0.0	2.423725e-01	-7.617053e-02	0.0	2.304155e-01	-7.756814e-02	0.0	2.186867e-01	-7.893908e-02	0.0	2.071503e-01	-7.891619e-02	0.0	1.958348e-01	-7.828003e-02	0.0	1.848135e-01	-7.731204e-02	0.0	1.742661e-01	-7.480455e-02	0.0	1.639625e-01	-7.235501e-02	0.0	1.541029e-01	-6.929689e-02	0.0	1.446109e-01	-6.589326e-02	0.0	1.353592e-01	-6.257578e-02	0.0	1.264840e-01	-5.898888e-02	0.0	1.178504e-01	-5.548523e-02	0.0	1.094428e-01	-5.210282e-02	0.0	1.012472e-01	-4.887304e-02	0.0	9.328621e-02	-4.573566e-02	0.0	8.552931e-02	-4.276361e-02	0.0	7.799151e-02	-3.991138e-02	0.0	7.067683e-02	-3.716137e-02	0.0	6.356657e-02	-3.455482e-02	0.0	5.667996e-02	-3.203026e-02	0.0	5.000528e-02	-2.960907e-02	0.0	4.354635e-02	-2.726922e-02	0.0	3.734107e-02	-2.489754e-02	0.0	3.135224e-02	-2.258095e-02	0.0	2.572326e-02	-1.997411e-02	0.0	2.038380e-02	-1.727561e-02	0.0	1.546638e-02	-1.423256e-02	0.0	1.097102e-02	-1.094452e-02	0.0	6.791922e-03	-7.555453e-03	0.0	3.115970e-03	-3.894232e-03	0.0	
CELLS 198	594
2	24	25	2	25	26	2	26	27	2	27	28	2	28	29	2	29	30	2	30	31	2	31	32	2	32	33	2	33	34	2	34	35	2	35	36	2	36	37	2	37	38	2	38	39	2	39	40	2	40	41	2	41	42	2	42	43	2	43	44	2	44	45	2	45	46	2	46	47	2	47	48	2	48	49	2	49	50	2	50	51	2	51	52	2	52	53	2	53	54	2	54	55	2	55	56	2	56	57	2	57	58	2	58	59	2	59	60	2	60	61	2	61	62	2	62	63	2	63	64	2	64	65	2	65	66	2	66	67	2	67	68	2	68	69	2	69	70	2	70	71	2	71	72	2	72	73	2	73	74	2	74	75	2	75	76	2	76	77	2	77	78	2	78	79	2	79	80	2	80	81	2	81	82	2	82	83	2	83	84	2	84	85	2	85	86	2	86	87	2	87	88	2	88	89	2	89	90	2	90	91	2	91	92	2	92	93	2	93	94	2	94	95	2	95	96	2	96	97	2	97	98	2	98	99	2	99	100	2	100	101	2	101	102	2	102	103	2	103	104	2	104	105	2	105	106	2	106	107	2	107	108	2	108	109	2	109	110	2	110	111	2	111	112	2	112	113	2	113	114	2	114	115	2	115	116	2	116	117	2	117	118	2	118	119	2	119	120	2	120	121	2	121	122	2	122	123	2	123	124	2	124	125	2	125	126	2	126	127	2	127	128	2	128	129	2	129	130	2	130	131	2	131	132	2	132	133	2	133	134	2	134	135	2	135	136	2	136	137	2	137	138	2	138	139	2	139	140	2	140	141	2	141	142	2	142	143	2	143	144	2	144	145	2	145	146	2	146	147	2	147	148	2	148	149	2	149	150	2	150	151	2	151	152	2	152	153	2	153	154	2	154	155	2	155	156	2	156	157	2	157	158	2	158	159	2	159	160	2	160	161	2	161	162	2	162	163	2	163	164	2	0	1	2	1	2	2	2	3	2	3	4	2	4	5	2	5	6	2	6	7	2	7	8	2	8	9	2	9	10	2	10	11	2	11	12	2	12	13	2	13	14	2	14	15	2	15	16	2	16	17	2	17	18	2	18	19	2	19	20	2	20	21	2	21	22	2	22	23	2	23	24	2	164	165	2	165	166	2	166	167	2	167	168	2	168	169	2	169	170	2	170	171	2	171	172	2	172	173	2	173	174	2	174	175	2	175	176	2	176	177	2	177	178	2	178	179	2	179	180	2	180	181	2	181	182	2	182	183	2	183	184	2	184	185	2	185	186	2	186	187	2	187	188	2	188	189	2	189	190	2	190	191	2	191	192	2	192	193	2	193	194	2	194	195	2	195	196	2	196	197	2	197	0	
CELL_TYPES 198
3	3	3	3	3	3	3	3	3	3	3	3	3	3	3	3	3	3	3	3	3	3	3	3	3	3	3	3	3	3	3	3	3	3	3	3	3	3	3	3	3	3	3	3	3	3	3	3	3	3	3	3	3	3	3	3	3	3	3	3	3	3	3	3	3	3	3	3	3	3	3	3	3	3	3	3	3	3	3	3	3	3	3	3	3	3	3	3	3	3	3	3	3	3	3	3	3	3	3	3	3	3	3	3	3	3	3	3	3	3	3	3	3	3	3	3	3	3	3	3	3	3	3	3	3	3	3	3	3	3	3	3	3	3	3	3	3	3	3	3	3	3	3	3	3	3	3	3	3	3	3	3	3	3	3	3	3	3	3	3	3	3	3	3	3	3	3	3	3	3	3	3	3	3	3	3	3	3	3	3	3	3	3	3	3	3	3	3	3	3	3	3	3	3	3	3	3	3	
POINT_DATA 198

SCALARS Density double 1
LOOKUP_TABLE default
1.539194e+00	1.156428e+00	1.139594e+00	1.084776e+00	1.057281e+00	1.024095e+00	1.005074e+00	9.793861e-01	9.629533e-01	9.389861e-01	9.254356e-01	9.036599e-01	8.895756e-01	8.723368e-01	8.592608e-01	8.523689e-01	8.502982e-01	8.592106e-01	8.771188e-01	9.044177e-01	9.258174e-01	9.328220e-01	9.334694e-01	9.092072e-01	8.780873e-01	8.569122e-01	8.145591e-01	7.834151e-01	7.500019e-01	7.439516e-01	8.735536e-01	1.134217e+00	1.213338e+00	1.236554e+00	1.247297e+00	1.252747e+00	1.267408e+00	1.262013e+00	1.253487e+00	1.246990e+00	1.225213e+00	1.209193e+00	1.189868e+00	1.163039e+00	1.139414e+00	1.116505e+00	1.087226e+00	1.063423e+00	1.037778e+00	1.009479e+00	9.898929e-01	9.558822e-01	9.281750e-01	8.946958e-01	8.557602e-01	8.307831e-01	7.837151e-01	7.460427e-01	7.009311e-01	6.468075e-01	6.151589e-01	5.545554e-01	5.671910e-01	7.334194e-01	1.060250e+00	1.167027e+00	1.197552e+00	1.216379e+00	1.234641e+00	1.252632e+00	1.256221e+00	1.265246e+00	1.268218e+00	1.258805e+00	1.256869e+00	1.244392e+00	1.230324e+00	1.217845e+00	1.197900e+00	1.188682e+00	1.184379e+00	1.179887e+00	1.188225e+00	1.188751e+00	1.196031e+00	1.203840e+00	1.209239e+00	1.216922e+00	1.222244e+00	1.227676e+00	1.232378e+00	1.237113e+00	1.241718e+00	1.246030e+00	1.250732e+00	1.254853e+00	1.260135e+00	1.266866e+00	1.259542e+00	1.280835e+00	1.362149e+00	1.342833e+00	1.342940e+00	1.348297e+00	1.348265e+00	1.351279e+00	1.352379e+00	1.354868e+00	1.356144e+00	1.357846e+00	1.359683e+00	1.360552e+00	1.363801e+00	1.363909e+00	1.367857e+00	1.369152e+00	1.368400e+00	1.371764e+00	1.367816e+00	1.370330e+00	1.366628e+00	1.360790e+00	1.356330e+00	1.346072e+00	1.337798e+00	1.325138e+00	1.312034e+00	1.297916e+00	1.277844e+00	1.258614e+00	1.239625e+00	1.208290e+00	1.185651e+00	1.158627e+00	1.126978e+00	1.111540e+00	1.071753e+00	1.059743e+00	1.072710e+00	1.072934e+00	1.092111e+00	1.103974e+00	1.119596e+00	1.142508e+00	1.155582e+00	1.169845e+00	1.181724e+00	1.190618e+00	1.201232e+00	1.210033e+00	1.218643e+00	1.227211e+00	1.234176e+00	1.242081e+00	1.249576e+00	1.255474e+00	1.265718e+00	1.267439e+00	1.272679e+00	1.276857e+00	1.267374e+00	1.269357e+00	1.252984e+00	1.243073e+00	1.207531e+00	1.081039e+00	7.419898e-01	6.288475e-01	6.225908e-01	6.781681e-01	7.776734e-01	8.132012e-01	9.205624e-01	1.034011e+00	1.092001e+00	1.172723e+00	1.221449e+00	1.265228e+00	1.315587e+00	1.348167e+00	1.372672e+00	1.392554e+00	1.410262e+00	1.422571e+00	1.436199e+00	1.447157e+00	1.456922e+00	1.466725e+00	1.473055e+00	1.483386e+00	1.488075e+00	1.498916e+00	1.520590e+00	1.544481e+00	1.580998e+00	1.613322e+00	1.619924e+00	1.680150e+00	
VECTORS Momentum double
7.558616e+00	2.150108e+02	0.0	1.616910e+02	1.826914e+02	0.0	2.013681e+02	1.750918e+02	0.0	2.314848e+02	1.579005e+02	0.0	2.539973e+02	1.477295e+02	0.0	2.679752e+02	1.334423e+02	0.0	2.774453e+02	1.234285e+02	0.0	2.830512e+02	1.116666e+02	0.0	2.886261e+02	1.035609e+02	0.0	2.914077e+02	9.355993e+01	0.0	2.965093e+02	8.693871e+01	0.0	2.978728e+02	7.823992e+01	0.0	2.997993e+02	7.215598e+01	0.0	3.010882e+02	6.499221e+01	0.0	3.015152e+02	5.883659e+01	0.0	3.019499e+02	5.418575e+01	0.0	3.029251e+02	5.027328e+01	0.0	3.050611e+02	4.861734e+01	0.0	3.069067e+02	4.731251e+01	0.0	3.096800e+02	4.706086e+01	0.0	3.116712e+02	4.576339e+01	0.0	3.119951e+02	4.209098e+01	0.0	3.132300e+02	4.029680e+01	0.0	3.131341e+02	3.379439e+01	0.0	3.107744e+02	2.621387e+01	0.0	3.111668e+02	2.214596e+01	0.0	3.056941e+02	1.232214e+01	0.0	3.020230e+02	6.743830e+00	0.0	2.991948e+02	1.908465e-01	0.0	2.906159e+02	-7.824882e+00	0.0	2.990043e+02	-1.111313e+01	0.0	2.976193e+02	-8.593205e+00	0.0	2.917010e+02	-1.004806e+01	0.0	2.871576e+02	-5.572406e+00	0.0	2.847376e+02	-2.871564e-01	0.0	2.801514e+02	3.048072e+00	0.0	2.788998e+02	1.237882e+01	0.0	2.799078e+02	1.911457e+01	0.0	2.809374e+02	2.449722e+01	0.0	2.846324e+02	3.198967e+01	0.0	2.882210e+02	3.467172e+01	0.0	2.916370e+02	3.785003e+01	0.0	2.962426e+02	4.083766e+01	0.0	3.001044e+02	4.066018e+01	0.0	3.035415e+02	3.995640e+01	0.0	3.073525e+02	3.948186e+01	0.0	3.097605e+02	3.609467e+01	0.0	3.119390e+02	3.346682e+01	0.0	3.138353e+02	3.005206e+01	0.0	3.139020e+02	2.486994e+01	0.0	3.158335e+02	2.235791e+01	0.0	3.146879e+02	1.601806e+01	0.0	3.142294e+02	1.112765e+01	0.0	3.130662e+02	5.056149e+00	0.0	3.085276e+02	-3.113877e+00	0.0	3.075511e+02	-7.557649e+00	0.0	2.997762e+02	-1.748705e+01	0.0	2.934290e+02	-2.478267e+01	0.0	2.851799e+02	-3.361582e+01	0.0	2.707076e+02	-4.502602e+01	0.0	2.631744e+02	-5.004197e+01	0.0	2.429873e+02	-5.784572e+01	0.0	2.345387e+02	-6.553988e+01	0.0	2.229600e+02	-7.012921e+01	0.0	2.031358e+02	-6.671839e+01	0.0	1.854173e+02	-6.706087e+01	0.0	1.743935e+02	-6.230768e+01	0.0	1.594682e+02	-5.622163e+01	0.0	1.451276e+02	-4.901031e+01	0.0	1.375655e+02	-3.929892e+01	0.0	1.300989e+02	-3.308060e+01	0.0	1.247055e+02	-2.255248e+01	0.0	1.272762e+02	-1.231516e+01	0.0	1.319758e+02	-7.386932e+00	0.0	1.396680e+02	7.667075e-02	0.0	1.508678e+02	4.098543e+00	0.0	1.616653e+02	5.959030e+00	0.0	1.737312e+02	6.979749e+00	0.0	1.834583e+02	7.601042e-01	0.0	1.883905e+02	-5.414275e+00	0.0	1.917313e+02	-1.100766e+01	0.0	1.904785e+02	-1.829106e+01	0.0	1.889175e+02	-2.115471e+01	0.0	1.861974e+02	-2.557092e+01	0.0	1.815494e+02	-2.797387e+01	0.0	1.774749e+02	-2.891369e+01	0.0	1.728365e+02	-3.008223e+01	0.0	1.683748e+02	-2.981575e+01	0.0	1.647271e+02	-2.971330e+01	0.0	1.614991e+02	-2.945602e+01	0.0	1.577695e+02	-2.911501e+01	0.0	1.537102e+02	-2.872667e+01	0.0	1.500410e+02	-2.831622e+01	0.0	1.462206e+02	-2.789381e+01	0.0	1.423876e+02	-2.739652e+01	0.0	1.379609e+02	-2.682385e+01	0.0	1.334298e+02	-2.607770e+01	0.0	1.278282e+02	-2.528124e+01	0.0	1.177588e+02	-2.556828e+01	0.0	1.508979e+02	2.728694e-01	0.0	2.118607e+02	-1.023222e+01	0.0	2.059044e+02	-7.053269e+00	0.0	2.018010e+02	-4.528005e+00	0.0	2.024869e+02	-3.491903e+00	0.0	2.002320e+02	-1.678586e+00	0.0	1.995845e+02	-3.780654e-01	0.0	1.983518e+02	1.108282e+00	0.0	1.973176e+02	2.279835e+00	0.0	1.962039e+02	3.866760e+00	0.0	1.949546e+02	5.149239e+00	0.0	1.935057e+02	6.497940e+00	0.0	1.923526e+02	8.101683e+00	0.0	1.913034e+02	9.255216e+00	0.0	1.899133e+02	1.153124e+01	0.0	1.885717e+02	1.274108e+01	0.0	1.866677e+02	1.574312e+01	0.0	1.862098e+02	1.911656e+01	0.0	1.855977e+02	2.133085e+01	0.0	1.848457e+02	2.599461e+01	0.0	1.853144e+02	2.880680e+01	0.0	1.850534e+02	3.433249e+01	0.0	1.874596e+02	3.985964e+01	0.0	1.908974e+02	4.394351e+01	0.0	1.947312e+02	4.941353e+01	0.0	2.002428e+02	5.320251e+01	0.0	2.053466e+02	5.760850e+01	0.0	2.119024e+02	6.109587e+01	0.0	2.188473e+02	6.419190e+01	0.0	2.261729e+02	6.743014e+01	0.0	2.349597e+02	6.862443e+01	0.0	2.430666e+02	6.884648e+01	0.0	2.507740e+02	6.986180e+01	0.0	2.608044e+02	6.655819e+01	0.0	2.678595e+02	6.309335e+01	0.0	2.751457e+02	5.914013e+01	0.0	2.826925e+02	5.065806e+01	0.0	2.849739e+02	4.722311e+01	0.0	2.905880e+02	3.656490e+01	0.0	2.911913e+02	2.534924e+01	0.0	2.885639e+02	2.117063e+01	0.0	2.886033e+02	1.306538e+01	0.0	2.850287e+02	9.062062e+00	0.0	2.825160e+02	4.462410e+00	0.0	2.788889e+02	8.178793e-02	0.0	2.738604e+02	-5.795582e-01	0.0	2.705237e+02	-2.114892e+00	0.0	2.668942e+02	-2.702208e+00	0.0	2.627252e+02	-2.984268e+00	0.0	2.594902e+02	-3.476342e+00	0.0	2.563335e+02	-3.409761e+00	0.0	2.536791e+02	-3.337898e+00	0.0	2.506902e+02	-3.138949e+00	0.0	2.469325e+02	-2.522122e+00	0.0	2.423430e+02	-2.015181e+00	0.0	2.370127e+02	-4.859867e-01	0.0	2.323594e+02	1.382931e+00	0.0	2.282422e+02	2.991270e+00	0.0	2.233100e+02	7.548723e+00	0.0	2.201253e+02	1.069302e+01	0.0	2.185293e+02	1.612594e+01	0.0	2.184472e+02	2.363200e+01	0.0	2.211228e+02	2.740019e+01	0.0	2.221523e+02	3.584538e+01	0.0	2.300523e+02	4.234157e+01	0.0	2.353237e+02	4.314119e+01	0.0	2.478460e+02	4.564945e+01	0.0	2.591990e+02	4.885532e+01	0.0	2.640046e+02	3.688097e+01	0.0	2.709712e+02	2.996144e+01	0.0	2.856760e+02	1.509935e+01	0.0	3.093347e+02	-1.055297e+01	0.0	3.109347e+02	-2.165335e+01	0.0	3.254943e+02	-5.297189e+01	0.0	3.254114e+02	-7.771083e+01	0.0	3.207771e+02	-8.862594e+01	0.0	3.145323e+02	-1.060409e+02	0.0	3.034228e+02	-1.087344e+02	0.0	2.946103e+02	-1.121972e+02	0.0	2.841244e+02	-1.153126e+02	0.0	2.742813e+02	-1.108321e+02	0.0	2.676261e+02	-1.066144e+02	0.0	2.613896e+02	-1.030734e+02	0.0	2.559062e+02	-9.952343e+01	0.0	2.510060e+02	-9.556037e+01	0.0	2.463769e+02	-9.295200e+01	0.0	2.415969e+02	-8.972100e+01	0.0	2.370946e+02	-8.690063e+01	0.0	2.323474e+02	-8.468579e+01	0.0	2.278689e+02	-8.255652e+01	0.0	2.222216e+02	-8.272999e+01	0.0	2.155074e+02	-8.273812e+01	0.0	2.062459e+02	-8.713663e+01	0.0	1.892876e+02	-9.171165e+01	0.0	1.649940e+02	-9.279057e+01	0.0	1.289773e+02	-8.741574e+01	0.0	8.558279e+01	-6.585403e+01	0.0	3.926253e+01	-3.323383e+01	0.0	-2.990788e+01	3.260712e+01	0.0	
SCALARS Energy double 1
LOOKUP_TABLE default
3.380868e+05	2.581365e+05	2.560595e+05	2.455856e+05	2.409487e+05	2.345873e+05	2.310675e+05	2.258956e+05	2.227764e+05	2.178805e+05	2.154291e+05	2.109629e+05	2.081839e+05	2.047132e+05	2.020300e+05	2.006182e+05	2.002380e+05	2.021951e+05	2.059183e+05	2.116307e+05	2.160855e+05	2.174711e+05	2.176965e+05	2.127572e+05	2.062473e+05	2.020542e+05	1.930616e+05	1.865340e+05	1.796969e+05	1.775636e+05	2.040804e+05	2.571329e+05	2.731556e+05	2.776900e+05	2.797757e+05	2.806228e+05	2.836359e+05	2.825913e+05	2.808955e+05	2.798216e+05	2.755267e+05	2.724440e+05	2.687725e+05	2.634831e+05	2.588462e+05	2.544124e+05	2.485555e+05	2.438369e+05	2.387358e+05	2.329481e+05	2.291367e+05	2.221315e+05	2.165011e+05	2.096779e+05	2.014729e+05	1.964389e+05	1.863937e+05	1.783921e+05	1.688102e+05	1.569005e+05	1.500696e+05	1.363331e+05	1.379382e+05	1.696907e+05	2.360863e+05	2.578413e+05	2.637932e+05	2.671427e+05	2.704601e+05	2.739810e+05	2.744742e+05	2.761955e+05	2.768684e+05	2.749681e+05	2.747828e+05	2.724747e+05	2.698479e+05	2.676491e+05	2.637915e+05	2.620472e+05	2.612940e+05	2.603046e+05	2.620241e+05	2.620383e+05	2.634026e+05	2.649025e+05	2.658725e+05	2.673350e+05	2.683316e+05	2.693708e+05	2.702381e+05	2.711049e+05	2.719621e+05	2.727555e+05	2.736360e+05	2.743770e+05	2.753692e+05	2.766482e+05	2.747921e+05	2.803024e+05	3.001150e+05	2.957233e+05	2.955652e+05	2.967382e+05	2.966341e+05	2.972505e+05	2.974340e+05	2.979234e+05	2.981512e+05	2.984650e+05	2.988005e+05	2.989421e+05	2.995974e+05	2.995699e+05	3.003652e+05	3.005769e+05	3.004103e+05	3.011164e+05	3.002647e+05	3.008373e+05	3.000709e+05	2.989578e+05	2.981764e+05	2.961938e+05	2.946999e+05	2.922739e+05	2.898241e+05	2.871921e+05	2.833412e+05	2.797445e+05	2.761809e+05	2.700430e+05	2.658504e+05	2.605980e+05	2.544371e+05	2.516500e+05	2.435430e+05	2.413798e+05	2.440064e+05	2.438240e+05	2.477536e+05	2.499320e+05	2.529831e+05	2.574905e+05	2.598720e+05	2.626308e+05	2.648817e+05	2.664813e+05	2.685093e+05	2.701675e+05	2.718211e+05	2.734507e+05	2.747030e+05	2.761139e+05	2.774062e+05	2.784068e+05	2.803652e+05	2.804848e+05	2.814461e+05	2.822722e+05	2.802854e+05	2.808610e+05	2.774963e+05	2.758620e+05	2.686376e+05	2.428277e+05	1.743031e+05	1.525149e+05	1.520694e+05	1.643075e+05	1.862450e+05	1.934179e+05	2.165106e+05	2.397007e+05	2.513009e+05	2.677388e+05	2.770349e+05	2.855998e+05	2.955091e+05	3.016378e+05	3.063156e+05	3.100893e+05	3.134676e+05	3.157437e+05	3.183526e+05	3.203882e+05	3.222016e+05	3.240316e+05	3.251444e+05	3.271030e+05	3.278209e+05	3.298338e+05	3.339126e+05	3.382517e+05	3.450500e+05	3.508989e+05	3.515312e+05	3.645251e+05	
SCALARS Pressure double 1
LOOKUP_TABLE default
1.292203e+05	9.296082e+04	8.992704e+04	8.375792e+04	8.004729e+04	7.633311e+04	7.407801e+04	7.145100e+04	6.958107e+04	6.720047e+04	6.553786e+04	6.339282e+04	6.189571e+04	6.013265e+04	5.884589e+04	5.816532e+04	5.791685e+04	5.866558e+04	6.037938e+04	6.295511e+04	6.499731e+04	6.573838e+04	6.570953e+04	6.328275e+04	6.034443e+04	5.810867e+04	5.424269e+04	5.131475e+04	4.800746e+04	4.830385e+04	6.113494e+04	8.722105e+04	9.521990e+04	9.773398e+04	9.891007e+04	9.971761e+04	1.011555e+05	1.005622e+05	9.966946e+04	9.877072e+04	9.645414e+04	9.467306e+04	9.247750e+04	8.962146e+04	8.708547e+04	8.456406e+04	8.153181e+04	7.902359e+04	7.633885e+04	7.353486e+04	7.139982e+04	6.807913e+04	6.529755e+04	6.195624e+04	5.834018e+04	5.579107e+04	5.154616e+04	4.811024e+04	4.399605e+04	3.947354e+04	3.669570e+04	3.203271e+04	3.426385e+04	5.297914e+04	8.581100e+04	9.647401e+04	9.978971e+04	1.021561e+05	1.043831e+05	1.063243e+05	1.069207e+05	1.079396e+05	1.081688e+05	1.072113e+05	1.068090e+05	1.053290e+05	1.036848e+05	1.020949e+05	9.989716e+04	9.884247e+04	9.828950e+04	9.791504e+04	9.872705e+04	9.887240e+04	9.971859e+04	1.005893e+05	1.012586e+05	1.021286e+05	1.027480e+05	1.033580e+05	1.039181e+05	1.044889e+05	1.050297e+05	1.055455e+05	1.060924e+05	1.066026e+05	1.072141e+05	1.079788e+05	1.076111e+05	1.085654e+05	1.134403e+05	1.119674e+05	1.121582e+05	1.126116e+05	1.127059e+05	1.130045e+05	1.131550e+05	1.134213e+05	1.135810e+05	1.137839e+05	1.140062e+05	1.141283e+05	1.144595e+05	1.145197e+05	1.149231e+05	1.151046e+05	1.150429e+05	1.153580e+05	1.150111e+05	1.152017e+05	1.148443e+05	1.141848e+05	1.136122e+05	1.124805e+05	1.114623e+05	1.100445e+05	1.085159e+05	1.068617e+05	1.046185e+05	1.023769e+05	1.001755e+05	9.680000e+04	9.411920e+04	9.116693e+04	8.771908e+04	8.581911e+04	8.184644e+04	8.036340e+04	8.167376e+04	8.192428e+04	8.381680e+04	8.523995e+04	8.693179e+04	8.938073e+04	9.096836e+04	9.253997e+04	9.389573e+04	9.499627e+04	9.619071e+04	9.720474e+04	9.816517e+04	9.913665e+04	9.999898e+04	1.009882e+05	1.019714e+05	1.027616e+05	1.039131e+05	1.043160e+05	1.049458e+05	1.053880e+05	1.044956e+05	1.045221e+05	1.029160e+05	1.015413e+05	9.797480e+04	8.538101e+04	5.096871e+04	3.840634e+04	3.695233e+04	4.158775e+04	4.986058e+04	5.347411e+04	6.297681e+04	7.423031e+04	8.023605e+04	8.830588e+04	9.380325e+04	9.852994e+04	1.039098e+05	1.076725e+05	1.104344e+05	1.126970e+05	1.146950e+05	1.161559e+05	1.176848e+05	1.189761e+05	1.201272e+05	1.212734e+05	1.220825e+05	1.232603e+05	1.239662e+05	1.252446e+05	1.277461e+05	1.306605e+05	1.349489e+05	1.389139e+05	1.402858e+05	1.455770e+05	
SCALARS Temperature double 1
LOOKUP_TABLE default
2.924608e+02	2.800346e+02	2.748972e+02	2.689776e+02	2.637463e+02	2.596588e+02	2.567566e+02	2.541468e+02	2.517192e+02	2.493122e+02	2.467041e+02	2.443798e+02	2.423863e+02	2.401356e+02	2.385731e+02	2.377206e+02	2.372816e+02	2.378560e+02	2.398063e+02	2.424891e+02	2.445684e+02	2.454995e+02	2.452215e+02	2.424671e+02	2.394031e+02	2.362300e+02	2.319792e+02	2.281816e+02	2.229856e+02	2.261869e+02	2.437980e+02	2.678894e+02	2.733861e+02	2.753360e+02	2.762491e+02	2.772929e+02	2.780376e+02	2.775884e+02	2.769954e+02	2.759280e+02	2.742456e+02	2.727477e+02	2.707495e+02	2.684405e+02	2.662531e+02	2.638491e+02	2.612388e+02	2.588697e+02	2.562544e+02	2.537618e+02	2.512692e+02	2.481075e+02	2.450741e+02	2.412348e+02	2.374904e+02	2.339415e+02	2.291229e+02	2.246488e+02	2.186597e+02	2.125990e+02	2.078060e+02	2.012237e+02	2.104443e+02	2.516418e+02	2.819453e+02	2.879783e+02	2.902830e+02	2.925672e+02	2.945234e+02	2.956919e+02	2.965011e+02	2.971912e+02	2.971246e+02	2.966965e+02	2.960385e+02	2.948635e+02	2.935796e+02	2.920400e+02	2.905111e+02	2.896733e+02	2.890991e+02	2.890942e+02	2.894462e+02	2.897441e+02	2.904450e+02	2.910807e+02	2.917092e+02	2.923580e+02	2.928502e+02	2.932854e+02	2.937499e+02	2.942327e+02	2.946589e+02	2.950813e+02	2.954953e+02	2.959411e+02	2.963911e+02	2.969190e+02	2.976287e+02	2.952765e+02	2.901170e+02	2.904692e+02	2.909408e+02	2.909563e+02	2.912070e+02	2.913272e+02	2.914780e+02	2.916272e+02	2.917630e+02	2.919179e+02	2.920929e+02	2.922191e+02	2.923689e+02	2.924995e+02	2.926826e+02	2.928675e+02	2.928714e+02	2.929535e+02	2.929156e+02	2.928627e+02	2.927449e+02	2.923127e+02	2.918032e+02	2.910981e+02	2.902470e+02	2.892928e+02	2.881236e+02	2.868177e+02	2.852077e+02	2.833610e+02	2.815150e+02	2.790837e+02	2.765360e+02	2.741095e+02	2.711496e+02	2.689610e+02	2.660331e+02	2.641729e+02	2.652348e+02	2.659928e+02	2.673589e+02	2.689768e+02	2.704879e+02	2.725304e+02	2.742333e+02	2.755697e+02	2.767962e+02	2.779486e+02	2.789566e+02	2.798469e+02	2.806152e+02	2.814139e+02	2.822597e+02	2.832376e+02	2.842798e+02	2.851367e+02	2.859984e+02	2.867174e+02	2.872608e+02	2.875275e+02	2.872260e+02	2.868501e+02	2.861328e+02	2.845617e+02	2.826484e+02	2.751379e+02	2.392963e+02	2.127590e+02	2.067614e+02	2.136281e+02	2.233523e+02	2.290740e+02	2.383185e+02	2.500843e+02	2.559628e+02	2.623158e+02	2.675302e+02	2.712874e+02	2.751486e+02	2.782219e+02	2.802646e+02	2.819232e+02	2.833186e+02	2.844446e+02	2.854538e+02	2.864008e+02	2.872337e+02	2.880363e+02	2.887120e+02	2.894674e+02	2.902076e+02	2.910799e+02	2.926618e+02	2.947082e+02	2.973504e+02	2.999542e+02	3.016821e+02	3.018387e+02	
SCALARS Mach double 1
LOOKUP_TABLE default
4.077108e-01	6.288668e-01	7.044899e-01	7.856643e-01	8.536306e-01	9.049113e-01	9.405513e-01	9.721445e-01	1.001200e+00	1.029734e+00	1.060386e+00	1.087505e+00	1.110639e+00	1.136637e+00	1.154622e+00	1.164415e+00	1.169454e+00	1.162860e+00	1.140431e+00	1.109448e+00	1.085311e+00	1.074463e+00	1.077704e+00	1.109703e+00	1.145073e+00	1.181511e+00	1.230109e+00	1.273407e+00	1.332615e+00	1.296133e+00	1.094268e+00	8.000541e-01	7.257326e-01	6.982465e-01	6.851344e-01	6.699414e-01	6.589592e-01	6.655979e-01	6.742941e-01	6.897640e-01	7.136991e-01	7.345895e-01	7.619104e-01	7.927845e-01	8.214307e-01	8.523216e-01	8.852525e-01	9.146596e-01	9.466617e-01	9.767729e-01	1.006554e+00	1.043924e+00	1.079423e+00	1.123954e+00	1.167057e+00	1.207698e+00	1.262681e+00	1.313657e+00	1.381996e+00	1.451515e+00	1.506923e+00	1.583874e+00	1.476368e+00	1.002121e+00	5.990901e-01	4.966325e-01	4.527552e-01	4.054002e-01	3.606217e-01	3.313240e-01	3.095638e-01	2.898224e-01	2.917823e-01	3.040955e-01	3.221691e-01	3.523224e-01	3.828073e-01	4.167405e-01	4.482188e-01	4.646968e-01	4.757125e-01	4.758062e-01	4.690796e-01	4.633230e-01	4.495383e-01	4.367179e-01	4.237208e-01	4.099328e-01	3.991978e-01	3.894917e-01	3.788902e-01	3.675816e-01	3.573370e-01	3.469143e-01	3.364167e-01	3.247651e-01	3.126039e-01	2.977556e-01	2.766289e-01	3.420010e-01	4.560330e-01	4.490549e-01	4.395667e-01	4.392513e-01	4.341341e-01	4.316616e-01	4.285414e-01	4.254368e-01	4.225928e-01	4.193292e-01	4.156153e-01	4.129189e-01	4.096989e-01	4.068719e-01	4.028817e-01	3.988155e-01	3.987297e-01	3.969123e-01	3.977536e-01	3.989220e-01	4.015150e-01	4.109095e-01	4.217477e-01	4.363642e-01	4.534668e-01	4.720196e-01	4.939612e-01	5.175649e-01	5.455373e-01	5.763123e-01	6.058883e-01	6.433182e-01	6.809802e-01	7.156127e-01	7.564866e-01	7.858854e-01	8.242829e-01	8.481946e-01	8.345866e-01	8.248041e-01	8.070175e-01	7.856751e-01	7.654438e-01	7.375909e-01	7.138725e-01	6.949057e-01	6.771992e-01	6.602772e-01	6.452321e-01	6.317385e-01	6.199280e-01	6.074781e-01	5.940876e-01	5.783242e-01	5.611617e-01	5.467447e-01	5.319437e-01	5.193418e-01	5.096542e-01	5.048451e-01	5.102790e-01	5.169903e-01	5.296071e-01	5.564509e-01	5.878593e-01	7.010693e-01	1.146303e+00	1.449674e+00	1.519062e+00	1.439674e+00	1.328434e+00	1.263237e+00	1.157548e+00	1.020608e+00	9.502031e-01	8.717369e-01	8.047727e-01	7.546133e-01	7.009167e-01	6.562217e-01	6.253372e-01	5.994407e-01	5.770043e-01	5.584109e-01	5.413343e-01	5.249214e-01	5.101412e-01	4.955665e-01	4.830211e-01	4.686715e-01	4.542456e-01	4.367344e-01	4.033366e-01	3.561350e-01	2.850887e-01	1.927851e-01	9.119679e-02	7.561174e-02	
SCALARS Pressure_Coefficient double 1
LOOKUP_TABLE default