# vtk DataFile Version 3.0
vtk output
ASCII
DATASET UNSTRUCTURED_GRID
POINTS 1819 double
1.000000e+02	0.000000e+00	0.0	9.917900e+01	1.278772e+01	0.0	9.672949e+01	2.536546e+01	0.0	9.269168e+01	3.752670e+01	0.0	8.713187e+01	4.907176e+01	0.0	8.014136e+01	5.981105e+01	0.0	7.183494e+01	6.956826e+01	0.0	6.234898e+01	7.818315e+01	0.0	5.183926e+01	8.551428e+01	0.0	4.047833e+01	9.144126e+01	0.0	2.845276e+01	9.586679e+01	0.0	1.595999e+01	9.871818e+01	0.0	3.205158e+00	9.994862e+01	0.0	-9.602303e+00	9.953791e+01	0.0	-2.225209e+01	9.749279e+01	0.0	-3.453651e+01	9.384684e+01	0.0	-4.625383e+01	8.865993e+01	0.0	-5.721167e+01	8.201723e+01	0.0	-6.723009e+01	7.402780e+01	0.0	-7.614460e+01	6.482284e+01	0.0	-8.380881e+01	5.455349e+01	0.0	-9.009689e+01	4.338837e+01	0.0	-9.490557e+01	3.151082e+01	0.0	-9.815592e+01	1.911586e+01	0.0	-9.979454e+01	6.407022e+00	0.0	-9.979454e+01	-6.407022e+00	0.0	-9.815592e+01	-1.911586e+01	0.0	-9.490557e+01	-3.151082e+01	0.0	-9.009689e+01	-4.338837e+01	0.0	-8.380881e+01	-5.455349e+01	0.0	-7.614460e+01	-6.482284e+01	0.0	-6.723009e+01	-7.402780e+01	0.0	-5.721167e+01	-8.201723e+01	0.0	-4.625383e+01	-8.865993e+01	0.0	-3.453651e+01	-9.384684e+01	0.0	-2.225209e+01	-9.749279e+01	0.0	-9.602303e+00	-9.953791e+01	0.0	3.205158e+00	-9.994862e+01	0.0	1.595999e+01	-9.871818e+01	0.0	2.845276e+01	-9.586679e+01	0.0	4.047833e+01	-9.144126e+01	0.0	5.183926e+01	-8.551428e+01	0.0	6.234898e+01	-7.818315e+01	0.0	7.183494e+01	-6.956826e+01	0.0	8.014136e+01	-5.981105e+01	0.0	8.713187e+01	-4.907176e+01	0.0	9.269168e+01	-3.752670e+01	0.0	9.672949e+01	-2.536546e+01	0.0	9.917900e+01	-1.278772e+01	0.0	0.000000e+00	0.000000e+00	0.0	3.094623e-03	3.927252e-03	0.0	6.309787e-03	7.997446e-03	0.0	1.063574e-02	1.119670e-02	0.0	1.512269e-02	1.451024e-02	0.0	2.027233e-02	1.713674e-02	0.0	2.560678e-02	1.985750e-02	0.0	3.137494e-02	2.213209e-02	0.0	3.735389e-02	2.446047e-02	0.0	4.369546e-02	2.642403e-02	0.0	5.028344e-02	2.833764e-02	0.0	5.721096e-02	2.986555e-02	0.0	6.442113e-02	3.112656e-02	0.0	7.192897e-02	3.205488e-02	0.0	7.971574e-02	3.255333e-02	0.0	8.775162e-02	3.301244e-02	0.0	9.602126e-02	3.367500e-02	0.0	1.044760e-01	3.482865e-02	0.0	1.131197e-01	3.645848e-02	0.0	1.218522e-01	3.876843e-02	0.0	1.307193e-01	4.158040e-02	0.0	1.397823e-01	4.460517e-02	0.0	1.489878e-01	4.799897e-02	0.0	1.584316e-01	5.148065e-02	0.0	1.681842e-01	5.484811e-02	0.0	1.781939e-01	5.824316e-02	0.0	1.884808e-01	6.157860e-02	0.0	1.992162e-01	6.426149e-02	0.0	2.101873e-01	6.700330e-02	0.0	2.215295e-01	6.906869e-02	0.0	2.332114e-01	7.059666e-02	0.0	2.451217e-01	7.212770e-02	0.0	2.573520e-01	7.232993e-02	0.0	2.697975e-01	7.253572e-02	0.0	2.824240e-01	7.204586e-02	0.0	2.952233e-01	7.086167e-02	0.0	3.082118e-01	6.965996e-02	0.0	3.212110e-01	6.723255e-02	0.0	3.343762e-01	6.476527e-02	0.0	3.476618e-01	6.209230e-02	0.0	3.610493e-01	5.918004e-02	0.0	3.745689e-01	5.623906e-02	0.0	3.883157e-01	5.382541e-02	0.0	4.021798e-01	5.144242e-02	0.0	4.162125e-01	4.969630e-02	0.0	4.304340e-01	4.888684e-02	0.0	4.447225e-01	4.807356e-02	0.0	4.590589e-01	4.886429e-02	0.0	4.734327e-01	4.976498e-02	0.0	4.877879e-01	5.109998e-02	0.0	5.021035e-01	5.293004e-02	0.0	5.164117e-01	5.475914e-02	0.0	5.306795e-01	5.672023e-02	0.0	5.449096e-01	5.867882e-02	0.0	5.591178e-01	6.037604e-02	0.0	5.732911e-01	6.179884e-02	0.0	5.873832e-01	6.321350e-02	0.0	6.014392e-01	6.377649e-02	0.0	6.153863e-01	6.433375e-02	0.0	6.292107e-01	6.431853e-02	0.0	6.429000e-01	6.376045e-02	0.0	6.564409e-01	6.319662e-02	0.0	6.697051e-01	6.133391e-02	0.0	6.828009e-01	5.949485e-02	0.0	6.956333e-01	5.721038e-02	0.0	7.081849e-01	5.443872e-02	0.0	7.205419e-01	5.171000e-02	0.0	7.326082e-01	4.865659e-02	0.0	7.444570e-01	4.561892e-02	0.0	7.561067e-01	4.270146e-02	0.0	7.675624e-01	3.995027e-02	0.0	7.787905e-01	3.725372e-02	0.0	7.898987e-01	3.513957e-02	0.0	8.007765e-01	3.310974e-02	0.0	8.114568e-01	3.139539e-02	0.0	8.219169e-01	2.987639e-02	0.0	8.321364e-01	2.845466e-02	0.0	8.421177e-01	2.715810e-02	0.0	8.518448e-01	2.587758e-02	0.0	8.613068e-01	2.453545e-02	0.0	8.705169e-01	2.322903e-02	0.0	8.794596e-01	2.184943e-02	0.0	8.881482e-01	2.047886e-02	0.0	8.965841e-01	1.911770e-02	0.0	9.047640e-01	1.773356e-02	0.0	9.127007e-01	1.639056e-02	0.0	9.203893e-01	1.504353e-02	0.0	9.278391e-01	1.372785e-02	0.0	9.350529e-01	1.244137e-02	0.0	9.420328e-01	1.117382e-02	0.0	9.487865e-01	9.947061e-03	0.0	9.553128e-01	8.731206e-03	0.0	9.616215e-01	7.555885e-03	0.0	9.677129e-01	6.397853e-03	0.0	9.735950e-01	5.275412e-03	0.0	9.792690e-01	4.169756e-03	0.0	9.847425e-01	3.094110e-03	0.0	9.900188e-01	2.040658e-03	0.0	9.951022e-01	1.005571e-03	0.0	1.000000e+00	0.000000e+00	0.0	9.950058e-01	2.379104e-04	0.0	9.898213e-01	4.414026e-04	0.0	9.844415e-01	5.924138e-04	0.0	9.788620e-01	6.976603e-04	0.0	9.730786e-01	7.778633e-04	0.0	9.670862e-01	7.988631e-04	0.0	9.608806e-01	7.964345e-04	0.0	9.544574e-01	7.275707e-04	0.0	9.478119e-01	6.418525e-04	0.0	9.409415e-01	4.594514e-04	0.0	9.338400e-01	2.709190e-04	0.0	9.265072e-01	-2.449305e-05	0.0	9.189366e-01	-3.515044e-04	0.0	9.111258e-01	-7.238630e-04	0.0	9.030726e-01	-1.164299e-03	0.0	8.947717e-01	-1.618285e-03	0.0	8.862221e-01	-2.112125e-03	0.0	8.774204e-01	-2.623478e-03	0.0	8.683641e-01	-3.136476e-03	0.0	8.590518e-01	-3.647674e-03	0.0	8.494835e-01	-4.169766e-03	0.0	8.396578e-01	-4.676167e-03	0.0	8.295764e-01	-5.195742e-03	0.0	8.192465e-01	-5.834605e-03	0.0	8.086646e-01	-6.507711e-03	0.0	7.978462e-01	-7.380471e-03	0.0	7.867883e-01	-8.380651e-03	0.0	7.755026e-01	-9.551662e-03	0.0	7.640068e-01	-1.101688e-02	0.0	7.522769e-01	-1.251193e-02	0.0	7.404026e-01	-1.458985e-02	0.0	7.283109e-01	-1.672783e-02	0.0	7.160776e-01	-1.924997e-02	0.0	7.037256e-01	-2.222753e-02	0.0	6.911782e-01	-2.525218e-02	0.0	6.786733e-01	-2.913844e-02	0.0	6.660268e-01	-3.319308e-02	0.0	6.532746e-01	-3.746491e-02	0.0	6.405529e-01	-4.230877e-02	0.0	6.276922e-01	-4.720556e-02	0.0	6.146655e-01	-5.204767e-02	0.0	6.014943e-01	-5.685606e-02	0.0	5.882195e-01	-6.170227e-02	0.0	5.745120e-01	-6.550523e-02	0.0	5.607028e-01	-6.926003e-02	0.0	5.466723e-01	-7.222944e-02	0.0	5.323410e-01	-7.392668e-02	0.0	5.179718e-01	-7.562839e-02	0.0	5.034892e-01	-7.563372e-02	0.0	4.889900e-01	-7.547245e-02	0.0	4.745245e-01	-7.479316e-02	0.0	4.601131e-01	-7.349776e-02	0.0	4.457396e-01	-7.220577e-02	0.0	4.314619e-01	-7.050718e-02	0.0	4.172520e-01	-6.881323e-02	0.0	4.031180e-01	-6.717845e-02	0.0	3.890747e-01	-6.560071e-02	0.0	3.751394e-01	-6.405122e-02	0.0	3.612888e-01	-6.290660e-02	0.0	3.475741e-01	-6.177321e-02	0.0	3.339851e-01	-6.105771e-02	0.0	3.205385e-01	-6.066759e-02	0.0	3.072638e-01	-6.035267e-02	0.0	2.941748e-01	-6.085618e-02	0.0	2.812776e-01	-6.135232e-02	0.0	2.685988e-01	-6.214158e-02	0.0	2.561413e-01	-6.312710e-02	0.0	2.439004e-01	-6.409765e-02	0.0	2.318848e-01	-6.507461e-02	0.0	2.200989e-01	-6.603289e-02	0.0	2.085323e-01	-6.671223e-02	0.0	1.971940e-01	-6.718141e-02	0.0	1.861002e-01	-6.759707e-02	0.0	1.752497e-01	-6.730162e-02	0.0	1.646504e-01	-6.701302e-02	0.0	1.543405e-01	-6.622761e-02	0.0	1.443132e-01	-6.506241e-02	0.0	1.345499e-01	-6.387085e-02	0.0	1.252138e-01	-6.171162e-02	0.0	1.161274e-01	-5.961011e-02	0.0	1.074488e-01	-5.702557e-02	0.0	9.915112e-02	-5.404562e-02	0.0	9.109122e-02	-5.115106e-02	0.0	8.352612e-02	-4.770568e-02	0.0	7.619192e-02	-4.435063e-02	0.0	6.914547e-02	-4.096405e-02	0.0	6.239815e-02	-3.751521e-02	0.0	5.586330e-02	-3.417520e-02	0.0	4.953100e-02	-3.095529e-02	0.0	4.340462e-02	-2.784011e-02	0.0	3.745698e-02	-2.487445e-02	0.0	3.170367e-02	-2.201750e-02	0.0	2.617746e-02	-1.919420e-02	0.0	2.086696e-02	-1.641974e-02	0.0	1.584523e-02	-1.354967e-02	0.0	1.112537e-02	-1.057987e-02	0.0	6.692881e-03	-7.530963e-03	0.0	2.801162e-03	-4.099563e-03	0.0	9.197729e-02	-6.856450e-02	0.0	1.039220e-01	-6.902954e-02	0.0	9.792576e-02	-6.238441e-02	0.0	8.645464e+01	2.645614e+01	0.0	8.243213e+01	2.035099e+01	0.0	8.868389e+01	1.740475e+01	0.0	7.565160e+01	-1.259711e+01	0.0	7.575458e+01	-2.484458e+01	0.0	8.705664e+01	-1.788984e+01	0.0	8.620124e+01	-5.084773e+00	0.0	2.743869e+01	2.397074e+01	0.0	3.794386e+01	2.755994e+01	0.0	3.096324e+01	3.527547e+01	0.0	8.184539e+01	3.505558e+01	0.0	7.273459e+01	3.360692e+01	0.0	7.607554e+01	2.473341e+01	0.0	6.862831e+01	-3.551779e+01	0.0	7.551015e+01	-4.357132e+01	0.0	8.113781e+01	-3.642821e+01	0.0	8.667404e+01	-2.841096e+01	0.0	4.851575e+01	3.036795e+01	0.0	5.755619e+01	3.223767e+01	0.0	5.367872e+01	3.982019e+01	0.0	5.533259e+01	-5.371509e+01	0.0	6.190613e+01	-5.992425e+01	0.0	6.542968e+01	-5.465709e+01	0.0	6.826951e+01	5.898008e+01	0.0	7.279762e+01	5.035136e+01	0.0	5.676911e+01	6.425589e+01	0.0	4.818022e+01	-6.444213e+01	0.0	4.594928e+01	-7.394805e+01	0.0	5.439414e+01	-7.221727e+01	0.0	6.609157e+01	-4.662227e+01	0.0	5.078727e+01	7.482201e+01	0.0	2.736307e+01	5.411046e+01	0.0	2.041062e+01	6.364674e+01	0.0	1.678852e+01	5.118326e+01	0.0	5.636832e+01	-6.355070e+01	0.0	2.852218e+01	7.415700e+01	0.0	4.016032e+01	7.893329e+01	0.0	3.025457e+01	8.528190e+01	0.0	3.684704e+01	-6.742446e+01	0.0	2.746205e+01	-7.518207e+01	0.0	3.890455e+01	-7.986636e+01	0.0	9.261077e-01	3.799251e+01	0.0	7.743217e+00	4.840555e+01	0.0	-2.159574e+00	5.205996e+01	0.0	9.300064e+00	7.648823e+01	0.0	1.819303e+01	7.444385e+01	0.0	1.596382e+01	8.181845e+01	0.0	1.345383e+01	4.053868e+01	0.0	9.755572e-01	-3.853945e-03	0.0	9.808292e-01	-6.686872e-03	0.0	9.811229e-01	-2.583492e-03	0.0	2.672918e+00	1.107876e+00	0.0	3.431539e+00	1.794130e+00	0.0	2.379217e+00	2.161597e+00	0.0	8.968635e-01	8.867087e-01	0.0	8.612440e-01	1.239965e+00	0.0	5.342091e-01	9.800051e-01	0.0	9.922977e-01	4.036934e-02	0.0	9.790830e-01	5.098564e-02	0.0	9.758410e-01	3.796654e-02	0.0	1.036051e+00	-4.365988e-03	0.0	1.055809e+00	6.005635e-03	0.0	1.035864e+00	1.133058e-02	0.0	1.101713e+00	2.110436e-01	0.0	1.064461e+00	3.088423e-01	0.0	9.946282e-01	2.418417e-01	0.0	1.443486e-01	6.664572e-02	0.0	1.556586e-01	7.527462e-02	0.0	1.413986e-01	7.964274e-02	0.0	4.755216e-01	8.918992e-02	0.0	4.943046e-01	1.039653e-01	0.0	4.665379e-01	1.056032e-01	0.0	5.494407e-01	7.018236e-02	0.0	5.228333e-01	8.575312e-02	0.0	5.231655e-01	7.208915e-02	0.0
[...]
POINT_DATA 1819

SCALARS Density double 1
LOOKUP_TABLE default
1.291250e+00	1.291364e+00	1.291978e+00	1.292245e+00	1.292162e+00	1.292094e+00	1.292082e+00	1.292053e+00	1.292015e+00	1.291982e+00	1.291958e+00	1.291953e+00	1.291967e+00	1.292011e+00	1.292075e+00	1.292136e+00	1.292190e+00	1.292230e+00	1.292260e+00	1.292280e+00	1.292295e+00	1.292306e+00	1.292314e+00	1.292322e+00	1.292327e+00	1.292334e+00	1.292343e+00	1.292353e+00	1.292366e+00	1.292382e+00	1.292403e+00	1.292431e+00	1.292464e+00	1.292506e+00	1.292554e+00	1.292606e+00	1.292659e+00	1.292695e+00	1.292694e+00	1.292667e+00	1.292621e+00	1.292564e+00	1.292509e+00	1.292454e+00	1.292397e+00	1.292354e+00	1.292396e+00	1.292309e+00	1.291795e+00	1.576491e+00	1.284452e+00	1.272630e+00	1.188087e+00	1.136645e+00	1.092457e+00	1.075821e+00	1.044011e+00	1.020875e+00	9.882275e-01	9.705831e-01	9.694065e-01	1.023081e+00	1.115689e+00	1.212616e+00	1.289820e+00	1.335763e+00	1.358933e+00	1.366045e+00	1.358101e+00	1.329016e+00	1.299458e+00	1.266794e+00	1.213367e+00	1.167627e+00	1.124425e+00	1.047154e+00	9.855349e-01	9.351459e-01	8.583685e-01	8.240099e-01	7.495983e-01	6.805470e-01	6.492614e-01	5.920245e-01	5.632252e-01	5.204181e-01	4.740956e-01	4.693923e-01	4.542656e-01	4.958724e-01	6.620969e-01	1.018483e+00	1.137320e+00	1.161689e+00	1.154706e+00	1.164520e+00	1.163444e+00	1.146629e+00	1.142312e+00	1.126423e+00	1.106342e+00	1.087956e+00	1.061938e+00	1.033344e+00	1.013539e+00	9.791508e-01	9.541692e-01	9.415235e-01	9.164152e-01	9.186502e-01	9.124292e-01	9.333318e-01	9.855669e-01	1.006430e+00	1.043126e+00	1.072070e+00	1.094436e+00	1.120290e+00	1.137895e+00	1.150259e+00	1.164306e+00	1.171315e+00	1.172188e+00	1.176809e+00	1.176236e+00	1.176604e+00	1.176903e+00	1.176243e+00	1.177888e+00	1.180174e+00	1.182284e+00	1.186507e+00	1.189030e+00	1.192651e+00	1.196138e+00	1.199248e+00	1.202802e+00	1.205586e+00	1.208594e+00	1.211587e+00	1.214404e+00	1.217538e+00	1.220280e+00	1.223434e+00	1.226394e+00	1.228691e+00	1.236714e+00	1.222296e+00	1.245808e+00	1.362100e+00	1.312087e+00	1.320426e+00	1.320721e+00	1.323150e+00	1.324602e+00	1.325480e+00	1.327182e+00	1.327695e+00	1.328121e+00	1.329134e+00	1.327509e+00	1.328272e+00	1.326749e+00	1.326221e+00	1.325853e+00	1.325198e+00	1.324791e+00	1.325794e+00	1.326500e+00	1.328217e+00	1.332320e+00	1.335445e+00	1.339166e+00	1.342863e+00	1.344357e+00	1.347798e+00	1.347179e+00	1.350741e+00	1.351024e+00	1.347433e+00	1.350416e+00	1.342606e+00	1.342882e+00	1.337723e+00	1.321818e+00	1.315149e+00	1.298706e+00	1.272545e+00	1.252641e+00	1.235029e+00	1.110394e+00	7.904365e-01	6.570392e-01	6.285131e-01	7.143481e-01	7.740428e-01	8.616703e-01	9.615863e-01	1.004712e+00	1.068555e+00	1.117304e+00	1.160172e+00	1.206806e+00	1.236777e+00	1.260508e+00	1.289094e+00	1.305281e+00	1.319922e+00	1.335755e+00	1.334432e+00	1.350975e+00	1.348079e+00	1.332539e+00	1.325438e+00	1.302864e+00	1.278722e+00	1.254658e+00	1.216103e+00	1.180658e+00	1.152245e+00	1.093609e+00	1.042297e+00	9.894793e-01	9.486422e-01	9.527329e-01	9.483754e-01	9.987048e-01	1.061154e+00	1.092321e+00	1.163551e+00	1.199023e+00	1.244442e+00	1.307024e+00	1.338760e+00	1.377729e+00	1.412563e+00	1.438085e+00	1.460897e+00	1.480107e+00	1.494172e+00	1.509228e+00	1.524883e+00	1.540659e+00	1.564972e+00	1.589521e+00	1.601922e+00	1.681240e+00	1.258152e+00	1.198858e+00	1.222007e+00	1.292068e+00	1.291865e+00	1.291792e+00	1.292055e+00	1.292292e+00	1.292131e+00	1.291654e+00	1.291770e+00	1.291966e+00	1.291828e+00	1.292151e+00	1.292146e+00	1.292029e+00	1.292354e+00	1.292347e+00	1.292322e+00	1.292304e+00	1.292054e+00	1.292087e+00	1.292014e+00	1.292451e+00	1.292451e+00	1.292416e+00	1.292060e+00	1.292073e+00	1.292021e+00	1.292530e+00	1.292565e+00	1.292520e+00	1.292375e+00	1.292004e+00	1.291825e+00	1.291805e+00	1.291700e+00	1.292486e+00	1.291901e+00	1.291960e+00	1.291938e+00	1.292604e+00	1.292665e+00	1.292613e+00	1.291401e+00	1.291597e+00	1.291657e+00	1.291851e+00	1.291858e+00	1.291883e+00	1.291471e+00	1.325128e+00	1.326168e+00	1.324146e+00	1.294388e+00	1.292152e+00	1.286053e+00	1.241654e+00	1.250622e+00	1.219194e+00	1.248049e+00	1.247458e+00	1.241945e+00	1.268064e+00	1.246285e+00	1.219393e+00	1.298448e+00	1.287970e+00	1.279697e+00	1.261206e+00	1.216007e+00	1.253212e+00	1.168079e+00	1.153824e+00	1.159374e+00	1.064597e+00	1.118350e+00	1.109016e+00	1.093328e+00	1.216061e+00	1.240575e+00	1.337331e+00	1.332922e+00	1.332051e+00	1.354133e+00	1.322413e+00	1.336249e+00	1.326854e+00	1.244760e+00	1.286496e+00	1.166041e+00	1.155065e+00	1.116337e+00	1.309911e+00	1.311263e+00	1.163260e+00	1.221560e+00	1.180153e+00	9.884455e-01	1.204136e+00	1.234281e+00	1.202638e+00	9.335526e-01	1.001634e+00	1.046977e+00	1.070245e+00	1.026570e+00	9.402508e-01	9.806544e-01	8.308456e-01	7.700071e-01	1.021622e+00	1.234046e+00	1.219583e+00	1.352174e+00	1.351183e+00	1.336101e+00	1.294022e+00	1.275262e+00	1.290430e+00	1.312572e+00	1.312652e+00	1.331999e+00	1.273010e+00	1.233916e+00	1.214624e+00	1.203363e+00	1.206090e+00	1.086716e+00	1.102136e+00	4.656584e-01	5.190971e-01	4.800375e-01	1.039809e+00	1.075377e+00	1.070940e+00	1.043727e+00	9.994063e-01	9.750374e-01	9.685381e-01	1.162853e+00	1.170563e+00	1.167847e+00	1.126526e+00	1.181907e+00	1.171352e+00	1.163589e+00	1.158416e+00	1.156705e+00	9.949479e-01	1.025636e+00	1.029520e+00	1.163661e+00	9.360194e-01	9.520213e-01	1.153135e+00	1.162030e+00	1.163713e+00	9.651787e-01	9.793805e-01	1.089590e+00	1.077435e+00	1.117752e+00	1.154882e+00	1.046161e+00	1.025179e+00	1.061010e+00	1.339743e+00	1.345667e+00	1.340245e+00	1.335736e+00	1.331141e+00	1.331150e+00	1.326067e+00	1.339691e+00	1.190045e+00	1.182411e+00	1.183210e+00	1.184185e+00	1.190059e+00	1.193193e+00	1.218334e+00	1.214237e+00	1.228344e+00	1.180094e+00	1.179503e+00	1.200130e+00	1.194337e+00	1.192725e+00	1.175652e+00	1.183734e+00	1.194845e+00	1.192042e+00	1.205861e+00	1.211665e+00	1.201230e+00	1.211466e+00	1.211064e+00	1.218055e+00	1.207614e+00	1.212953e+00	1.181511e+00	1.218463e+00	1.218303e+00	1.162625e+00	1.264626e+00	1.261644e+00	1.280529e+00	1.311688e+00	1.299752e+00	1.292620e+00	1.214862e+00	1.218304e+00	1.213633e+00	1.216718e+00	1.219277e+00	1.257484e+00	1.254561e+00	1.194262e+00	1.242562e+00	1.219906e+00	1.242704e+00	1.189537e+00	1.222389e+00	1.289257e+00	1.301304e+00	1.282756e+00	1.348589e+00	1.349525e+00	1.356002e+00	1.172158e+00	1.335604e+00	1.336516e+00	1.325635e+00	1.142230e+00	1.266994e+00	1.252127e+00	1.256798e+00	1.186765e+00	1.182473e+00	1.224704e+00	1.329324e+00	1.315476e+00	1.310817e+00	1.323331e+00	1.301883e+00	1.296413e+00	1.309367e+00	1.318762e+00	1.278894e+00	1.325271e+00	1.273846e+00	1.276361e+00	1.259839e+00	1.166364e+00	1.132838e+00	1.191558e+00	1.204802e+00	1.201087e+00	1.222324e+00	1.544996e+00	1.523356e+00	1.512512e+00	1.434080e+00	1.420972e+00	1.398088e+00	7.526034e-01	1.251972e+00	1.217422e+00	1.333283e+00	1.336379e+00	1.330839e+00	1.341090e+00	1.339096e+00	1.345575e+00	1.617317e+00	1.621544e+00	1.650832e+00	1.330997e+00	1.331182e+00	1.337180e+00	1.334829e+00	1.331058e+00	1.333757e+00	1.342926e+00	1.336632e+00	1.333147e+00	1.341164e+00	1.337872e+00	1.461014e+00	1.427083e+00	1.453054e+00	1.583568e+00	1.604492e+00	1.591763e+00	1.219612e+00	1.259890e+00	1.272159e+00	1.291223e+00	1.291020e+00	1.131739e+00	7.049623e-01	6.570345e-01	1.312736e+00	1.351710e+00	1.353624e+00	1.347371e+00	7.363372e-01	1.353683e+00	1.367499e+00	1.365171e+00	1.362392e+00	1.357581e+00	1.354577e+00	1.361192e+00	1.367193e+00	1.367993e+00	8.520185e-01	7.773983e-01	1.355472e+00	1.302392e+00	1.305250e+00	1.321673e+00	1.284186e+00	1.274371e+00	1.275949e+00	1.355908e+00	1.350053e+00	1.346302e+00	8.499687e-01	1.355064e+00	1.353102e+00	1.364606e+00	1.339112e+00	1.345724e+00	1.364319e+00	1.360524e+00	1.360746e+00	1.232093e+00	1.230735e+00	1.227573e+00	1.231744e+00	1.239607e+00	1.235093e+00	1.241144e+00	1.146519e+00	1.141402e+00	1.135308e+00	1.154759e+00	1.127775e+00	1.152963e+00	1.291709e+00	1.094083e+00	1.070540e+00	1.171903e+00	1.167503e+00	1.200415e+00	1.182935e+00	5.286127e-01	7.097892e-01	7.195466e-01	5.684672e-01	1.292068e+00	1.292004e+00	5.116749e-01	5.448148e-01	5.781639e-01	6.002340e-01	1.291999e+00	5.031840e-01	7.441252e-01	6.548168e-01	6.971281e-01	1.251209e+00	1.284586e+00	1.239337e+00	1.292114e+00	1.259817e+00	1.304047e+00	1.301142e+00	1.267334e+00	1.178257e+00	1.082106e+00	1.124991e+00	1.292180e+00	1.056627e+00	1.010960e+00	1.292257e+00	1.291916e+00	1.291683e+00	1.291652e+00	1.292068e+00	1.292324e+00	1.291942e+00	1.292357e+00	1.292481e+00	1.292245e+00	1.292271e+00	1.292254e+00	1.134973e+00	1.172260e+00	1.177180e+00	1.102154e+00	1.060932e+00	1.096238e+00	1.292313e+00	1.292276e+00	1.292306e+00	1.292323e+00	1.292316e+00	1.292327e+00	1.292288e+00	1.292305e+00	1.292349e+00	1.292361e+00	1.292362e+00	1.292379e+00	1.292396e+00	1.292408e+00	1.292441e+00	1.292458e+00	1.292497e+00	1.292540e+00	1.292407e+00	1.292378e+00	1.292416e+00	1.292444e+00	1.292398e+00	1.292470e+00	1.292452e+00	1.292548e+00	1.293479e+00	1.293155e+00	1.293461e+00	1.292506e+00	1.298923e+00	1.303081e+00	1.298065e+00	1.296745e+00	1.299686e+00	1.292577e+00	1.292604e+00	1.316559e+00	1.320157e+00	1.331395e+00	1.295225e+00	1.293961e+00	1.294239e+00	9.527264e-01	7.939937e-01	8.866363e-01	9.775780e-01	1.008073e+00	1.026239e+00	1.292920e+00	1.292969e+00	1.613791e+00	1.589583e+00	1.069148e+00	1.244606e+00	1.223933e+00	1.292699e+00	1.292655e+00	1.521904e+00	1.503855e+00	1.505973e+00	1.253451e+00	1.228665e+00	1.231674e+00	1.209724e+00	1.283439e+00	1.252910e+00	1.188811e+00	1.292680e+00	1.292733e+00	1.292772e+00	1.288697e+00	1.489799e+00	1.493747e+00	1.292590e+00	1.292628e+00	1.518507e+00	1.505322e+00	1.292771e+00	1.292722e+00	1.292747e+00	1.453530e+00	1.470679e+00	1.472725e+00	1.326619e+00	1.301288e+00	1.410734e+00	1.396169e+00	1.436453e+00	1.292628e+00	1.477832e+00	1.292335e+00	1.292571e+00	1.291348e+00	1.292070e+00	1.233032e+00	1.264499e+00	1.272429e+00	1.292946e+00	1.292876e+00	1.293406e+00	1.330115e+00	1.328608e+00	1.333238e+00	1.292977e+00	1.292890e+00	1.293616e+00	1.292637e+00	1.292579e+00	1.292168e+00	1.292074e+00	1.292101e+00	1.292664e+00	1.292699e+00	1.292707e+00	1.293120e+00	1.291956e+00	1.291930e+00	1.291921e+00	1.291914e+00	1.291527e+00	1.291430e+00	1.291763e+00	1.292429e+00	1.292379e+00	1.292083e+00	1.291775e+00	1.291868e+00	1.292735e+00	1.292870e+00	1.292719e+00	1.292243e+00	1.292295e+00	1.292315e+00	1.292608e+00	1.292283e+00	1.543578e+00	1.576393e+00	1.578090e+00	1.291893e+00	1.291655e+00	1.292080e+00	1.291488e+00	1.290671e+00	1.291505e+00	1.291625e+00	1.289330e+00	1.290395e+00	1.289691e+00	1.292434e+00	1.292352e+00	1.292256e+00	1.292815e+00	1.292658e+00	1.292773e+00	1.292480e+00	1.292366e+00	1.292371e+00	1.292394e+00	1.292348e+00	1.292209e+00	1.291947e+00	1.291932e+00	1.292719e+00	1.292789e+00	1.292890e+00	1.292829e+00	1.292110e+00	1.292062e+00	1.292019e+00	1.291908e+00	1.291855e+00	1.291938e+00	1.291978e+00	1.291663e+00	1.291682e+00	1.291644e+00	1.292235e+00	1.292340e+00	1.292577e+00	1.292542e+00	1.292463e+00	1.292674e+00	1.292489e+00	1.292483e+00	1.292433e+00	1.291917e+00	1.291887e+00	1.292796e+00	1.292578e+00	9.741163e-01	1.098187e+00	1.099744e+00	1.060629e+00	1.291075e+00	1.163766e+00	1.293193e+00	1.293109e+00	1.291952e+00	1.292381e+00	1.292836e+00	1.292037e+00	1.291911e+00	1.292003e+00	1.292252e+00	1.292380e+00	1.292398e+00	1.292364e+00	1.291620e+00	1.291817e+00	1.292445e+00	1.292839e+00	1.211560e+00	1.217642e+00	1.161860e+00	1.293504e+00	1.293985e+00	1.294346e+00	1.291844e+00	1.292251e+00	1.293107e+00	1.292666e+00	1.293906e+00	1.294559e+00	1.291091e+00	1.041701e+00	1.292145e+00	1.292209e+00	1.292554e+00	1.292341e+00	1.292255e+00	1.292426e+00	1.292353e+00	1.292214e+00	1.292144e+00	1.292791e+00	1.292856e+00	1.291884e+00	1.291797e+00	1.292688e+00	1.292709e+00	1.292661e+00	1.291902e+00	1.291698e+00	1.292634e+00	1.291928e+00	1.292337e+00	1.292385e+00	1.292475e+00	1.292348e+00	1.292957e+00	1.291132e+00	1.292374e+00	1.292675e+00	1.291801e+00	1.291916e+00	1.292625e+00	1.292704e+00	1.291806e+00	1.291861e+00	1.291787e+00	1.292878e+00	1.292676e+00	1.292549e+00	1.292865e+00	1.293792e+00	1.258903e+00	1.300452e+00	1.292496e+00	1.291789e+00	1.292093e+00	1.292134e+00	1.292594e+00	1.292021e+00	1.291870e+00	1.292086e+00	1.290652e+00	1.291565e+00	1.292736e+00	1.292074e+00	1.291986e+00	1.291968e+00	1.291885e+00	1.292452e+00	1.292419e+00	1.289632e+00	1.290123e+00	1.292627e+00	1.294811e+00	1.288497e+00	1.294616e+00	1.291713e+00	1.292166e+00	1.292736e+00	1.291387e+00	1.295500e+00	1.295555e+00	1.294833e+00	1.290028e+00	1.288949e+00	1.291265e+00	1.378881e+00	1.375805e+00	1.358601e+00	1.294052e+00	1.289629e+00	1.296722e+00	1.294793e+00	1.295693e+00	1.291649e+00	1.292818e+00	1.293935e+00	1.280322e+00	1.285108e+00	1.290403e+00	1.293352e+00	1.286530e+00	1.288228e+00	1.294102e+00	1.293561e+00	1.295007e+00	1.288612e+00	1.291308e+00	1.290376e+00	1.295789e+00	1.295054e+00	1.287448e+00	1.285328e+00	1.284110e+00	1.293262e+00	1.293771e+00	1.293098e+00	1.294247e+00	1.326517e+00	1.291936e+00	1.287097e+00	1.291167e+00	1.291946e+00	1.292371e+00	1.290177e+00	1.298540e+00	1.300898e+00	1.298421e+00	1.296768e+00	1.296845e+00	1.280020e+00	1.273006e+00	1.275969e+00	1.297118e+00	1.296229e+00	1.286447e+00	1.287410e+00	1.296895e+00	1.295815e+00	1.291965e+00	1.271073e+00	1.262316e+00	1.286356e+00	1.287087e+00	1.287742e+00	1.290036e+00	1.282928e+00	1.294401e+00	1.295458e+00	1.297359e+00	1.338504e+00	1.333102e+00	1.335100e+00	1.295118e+00	1.297391e+00	1.299280e+00	1.284356e+00	1.278585e+00	1.273432e+00	1.281503e+00	1.282512e+00	1.071422e+00	1.031384e+00	1.049190e+00	1.253052e+00	1.288888e+00	1.279229e+00	1.274119e+00	1.270002e+00	1.405510e+00	1.438505e+00	1.428995e+00	1.297936e+00	1.310804e+00	1.319360e+00	1.304336e+00	1.306978e+00	1.296566e+00	1.292867e+00	1.296089e+00	1.297835e+00	1.294751e+00	1.306220e+00	1.302194e+00	1.296606e+00	1.300343e+00	1.294405e+00	1.069538e+00	1.093375e+00	1.009088e+00	1.280466e+00	1.296692e+00	1.296614e+00	1.302832e+00	1.297763e+00	1.299029e+00	1.290170e+00	1.290794e+00	1.302199e+00	1.286736e+00	1.298316e+00	1.398704e+00	1.360783e+00	1.391138e+00	1.300727e+00	1.298004e+00	1.305942e+00	1.282205e+00	1.290068e+00	1.303685e+00	1.246610e+00	4.705538e-01	1.305896e+00	1.292739e+00	1.300781e+00	1.306825e+00	1.304709e+00	1.291006e+00	1.304484e+00	1.294810e+00	1.301487e+00	1.270827e+00	1.339583e+00	1.327482e+00	1.291760e+00	1.054590e+00	9.991311e-01	1.312627e+00	1.110509e+00	1.174512e+00	1.209998e+00	1.273388e+00	1.292357e+00	1.316210e+00	1.347489e+00	1.330477e+00	1.320378e+00	1.293241e+00	1.293594e+00	1.288047e+00	1.100527e+00	1.101364e+00	1.307956e+00	1.264381e+00	1.309907e+00	1.308422e+00	1.315189e+00	1.271773e+00	1.290959e+00	1.294776e+00	1.059130e+00	1.094404e+00	6.480212e-01	6.354671e-01	1.316706e+00	1.320997e+00	1.311435e+00	1.238366e+00	1.226887e+00	1.265744e+00	1.258957e+00	1.299267e+00	1.314938e+00	1.297292e+00	1.288022e+00	1.358193e+00	1.322774e+00	1.381926e+00	1.324278e+00	1.103482e+00	1.079167e+00	1.328440e+00	1.357965e+00	1.374941e+00	1.265916e+00	1.291107e+00	1.250598e+00	1.261641e+00	1.264160e+00	1.307064e+00	1.328917e+00	1.335350e+00	1.335065e+00	1.317758e+00	1.328332e+00	1.353686e+00	1.255057e+00	1.152209e+00	1.188868e+00	1.157945e+00	1.236627e+00	1.193293e+00	1.251917e+00	1.335390e+00	1.358966e+00	1.350399e+00	1.223861e+00	1.222937e+00	1.234815e+00	1.326254e+00	1.226601e+00	1.046118e+00	1.134549e+00	9.974046e-01	1.208623e+00	1.146078e+00	6.888272e-01	6.646135e-01	7.257843e-01	1.341937e+00	1.320718e+00	1.316505e+00	1.150075e+00	1.129765e+00	1.137918e+00	1.075745e+00	1.020553e+00	1.157885e+00	1.118122e+00	1.262769e+00	1.341662e+00	1.191093e+00	1.222215e+00	1.224926e+00	1.321343e+00	1.306067e+00	1.315916e+00	1.362930e+00	1.250805e+00	1.205257e+00	1.167294e+00	1.169086e+00	1.201674e+00	1.409072e+00	1.446162e+00	1.342770e+00	1.125162e+00	1.143504e+00	1.248289e+00	1.243489e+00	1.325423e+00	1.335924e+00	1.346003e+00	1.336519e+00	1.342460e+00	1.392769e+00	1.402767e+00	1.239281e+00	9.981236e-01	1.270174e+00	1.203512e+00	1.361169e+00	1.284672e+00	1.240416e+00	1.183728e+00	1.220416e+00	1.328253e+00	1.328559e+00	1.322705e+00	1.322762e+00	1.331188e+00	1.342246e+00	1.335511e+00	1.324059e+00	1.122655e+00	1.125438e+00	9.193636e-01	1.329541e+00	1.354154e+00	1.331081e+00	1.403224e+00	1.280395e+00	1.273304e+00	1.276411e+00	1.300797e+00	1.241519e+00	1.266863e+00	1.247726e+00	1.233034e+00	1.250957e+00	1.287975e+00	1.319489e+00	1.364365e+00	1.237538e+00	9.045731e-01	7.899721e-01	1.320213e+00	1.325258e+00	1.328265e+00	1.158906e+00	1.183278e+00	1.180829e+00	1.187529e+00	1.215974e+00	1.254997e+00	1.249483e+00	1.343108e+00	1.431979e+00	1.224387e+00	1.096339e+00	1.207956e+00	1.136049e+00	1.150888e+00	1.052329e+00	7.840427e-01	7.130055e-01	1.180058e+00	1.258045e+00	1.268124e+00	1.280849e+00	1.299872e+00	1.230305e+00	1.328285e+00	1.372290e+00	1.360542e+00	1.365695e+00	1.215252e+00	9.885984e-01	1.342709e+00	1.377984e+00	9.489924e-01	1.123486e+00	1.346407e+00	1.348201e+00	1.245360e+00	1.246911e+00	1.112137e+00	1.143979e+00	1.226793e+00	1.158310e+00	1.087608e+00	1.275505e+00	1.131872e+00	1.268310e+00	1.268322e+00	1.279062e+00	1.260701e+00	1.234488e+00	1.212526e+00	1.324802e+00	1.184969e+00	1.161517e+00	1.077606e+00	1.189476e+00	1.324902e+00	1.344601e+00	1.269488e+00	1.363931e+00	1.363692e+00	1.354251e+00	9.923195e-01	9.902433e-01	8.028395e-01	7.671346e-01	8.911918e-01	1.330796e+00	1.340428e+00	1.349961e+00	1.318610e+00	1.332827e+00	8.697589e-01	9.180995e-01	8.308184e-01	1.017251e+00	1.212019e+00	1.367888e+00	1.375264e+00	1.378041e+00	1.314882e+00	1.358142e+00	1.098041e+00	1.012520e+00	1.143247e+00	1.118247e+00	1.104265e+00	1.268923e+00	1.274294e+00	1.200805e+00	1.162534e+00	1.256160e+00	1.254908e+00	1.280233e+00	1.269396e+00	1.286519e+00	7.812772e-01	1.495204e+00	1.491953e+00	1.321049e+00	1.392837e+00	1.240316e+00	9.291385e-01	1.204185e+00	9.295381e-01	1.225113e+00	1.159777e+00	1.251368e+00	1.246971e+00	1.252486e+00	1.242526e+00	1.221736e+00	1.210062e+00	1.241181e+00	1.227670e+00	1.102557e+00	1.072418e+00	1.298067e+00	1.317051e+00	1.321994e+00	1.119462e+00	1.156390e+00	1.264959e+00	1.263993e+00	1.112966e+00	1.070799e+00	1.468993e+00	1.615609e+00	1.058084e+00	1.053401e+00	1.147255e+00	1.346968e+00	1.353863e+00	1.345616e+00	7.100413e-01	1.111528e+00	1.078218e+00	1.130258e+00	1.173331e+00	1.139740e+00	1.358167e+00	1.367264e+00	1.071402e+00	7.447568e-01	1.115405e+00	5.922033e-01	6.762988e-01	6.495213e-01	9.656000e-01	1.193132e+00	1.461634e+00	1.472549e+00	1.287642e+00	1.260994e+00	1.306767e+00	9.721301e-01	9.260914e-01	1.265919e+00	1.266022e+00	1.303799e+00	1.293984e+00	1.293158e+00	1.337254e+00	1.373647e+00	1.346280e+00	1.296915e+00	1.303226e+00	1.304014e+00	1.342966e+00	1.343778e+00	1.350468e+00	1.360836e+00	1.357647e+00	1.358209e+00	1.293265e+00	1.224043e+00	1.156937e+00	1.155222e+00	1.082329e+00	1.031281e+00	1.243194e+00	1.037718e+00	9.985794e-01	1.207814e+00	1.201774e+00	1.348243e+00	1.007832e+00	1.264220e+00	1.175709e+00	1.189493e+00	1.146468e+00	1.170924e+00	1.163932e+00	1.147986e+00	1.126634e+00	6.066669e-01	5.819130e-01	1.431799e+00	1.441668e+00	1.449654e+00	1.468033e+00	1.242576e+00	1.214979e+00	1.172594e+00	1.203298e+00	1.361160e+00	1.367076e+00	1.365790e+00	1.363839e+00	1.009012e+00	1.023290e+00	1.096749e+00	1.145347e+00	1.099067e+00	1.247111e+00	1.493307e+00	1.362759e+00	1.302123e+00	1.223123e+00	1.342732e+00	1.333268e+00	1.244302e+00	1.310066e+00	1.292264e+00	1.151195e+00	1.161677e+00	1.240257e+00	1.297721e+00	1.265996e+00	1.271399e+00	1.116529e+00	1.357762e+00	1.352543e+00	1.353837e+00	1.359154e+00	9.855563e-01	9.722050e-01	1.040148e+00	1.009790e+00	1.124428e+00	1.082753e+00	1.122575e+00	1.014559e+00	1.043068e+00	1.053983e+00	8.712275e-01	8.989341e-01	8.287124e-01	1.349512e+00	1.520411e+00	1.519756e+00	1.538641e+00	8.346863e-01	9.468304e-01	1.337160e+00	1.266351e+00	1.284348e+00	1.241515e+00	1.543171e+00	1.259467e+00	7.261778e-01	1.321204e+00	1.315639e+00	1.317937e+00	1.311100e+00	1.302948e+00	1.314023e+00	1.064851e+00	1.048941e+00	1.006679e+00	1.110481e+00	1.275313e+00	1.343191e+00	1.139805e+00	1.214745e+00	1.339889e+00	1.329310e+00	1.430569e+00	9.756105