# vtk DataFile Version 3.0
vtk output
ASCII
DATASET UNSTRUCTURED_GRID
POINTS 198 double
0.000000e+00	0.000000e+00	0.0	3.094623e-03	3.927252e-03	0.0	6.309787e-03	7.997446e-03	0.0	1.063574e-02	1.119670e-02	0.0	1.512269e-02	1.451024e-02	0.0	2.027233e-02	1.713674e-02	0.0	2.560678e-02	1.985750e-02	0.0	3.137494e-02	2.213209e-02	0.0	3.735389e-02	2.446047e-02	0.0	4.369546e-02	2.642403e-02	0.0	5.028344e-02	2.833764e-02	0.0	5.721096e-02	2.986555e-02	0.0	6.442113e-02	3.112656e-02	0.0	7.192897e-02	3.205488e-02	0.0	7.971574e-02	3.255333e-02	0.0	8.775162e-02	3.301244e-02	0.0	9.602126e-02	3.367500e-02	0.0	1.044760e-01	3.482865e-02	0.0	1.131197e-01	3.645848e-02	0.0	1.218522e-01	3.876843e-02	0.0	1.307193e-01	4.158040e-02	0.0	1.397823e-01	4.460517e-02	0.0	1.489878e-01	4.799897e-02	0.0	1.584316e-01	5.148065e-02	0.0	1.681842e-01	5.484811e-02	0.0	1.781939e-01	5.824316e-02	0.0	1.884808e-01	6.157860e-02	0.0	1.992162e-01	6.426149e-02	0.0	2.101873e-01	6.700330e-02	0.0	2.215295e-01	6.906869e-02	0.0	2.332114e-01	7.059666e-02	0.0	2.451217e-01	7.212770e-02	0.0	2.573520e-01	7.232993e-02	0.0	2.697975e-01	7.253572e-02	0.0	2.824240e-01	7.204586e-02	0.0	2.952233e-01	7.086167e-02	0.0	3.082118e-01	6.965996e-02	0.0	3.212110e-01	6.723255e-02	0.0	3.343762e-01	6.476527e-02	0.0	3.476618e-01	6.209230e-02	0.0	3.610493e-01	5.918004e-02	0.0	3.745689e-01	5.623906e-02	0.0	3.883157e-01	5.382541e-02	0.0	4.021798e-01	5.144242e-02	0.0	4.162125e-01	4.969630e-02	0.0	4.304340e-01	4.888684e-02	0.0	4.447225e-01	4.807356e-02	0.0	4.590589e-01	4.886429e-02	0.0	4.734327e-01	4.976498e-02	0.0	4.877879e-01	5.109998e-02	0.0	5.021035e-01	5.293004e-02	0.0	5.164117e-01	5.475914e-02	0.0	5.306795e-01	5.672023e-02	0.0	5.449096e-01	5.867882e-02	0.0	5.591178e-01	6.037604e-02	0.0	5.732911e-01	6.179884e-02	0.0	5.873832e-01	6.321350e-02	0.0	6.014392e-01	6.377649e-02	0.0	6.153863e-01	6.433375e-02	0.0	6.292107e-01	6.431853e-02	0.0	6.429000e-01	6.376045e-02	0.0	6.564409e-01	6.319662e-02	0.0	6.697051e-01	6.133391e-02	0.0	6.828009e-01	5.949485e-02	0.0	6.956333e-01	5.721038e-02	0.0	7.081849e-01	5.443872e-02	0.0	7.205419e-01	5.171000e-02	0.0	7.326082e-01	4.865659e-02	0.0	7.444570e-01	4.561892e-02	0.0	7.561067e-01	4.270146e-02	0.0	7.675624e-01	3.995027e-02	0.0	7.787905e-01	3.725372e-02	0.0	7.898987e-01	3.513957e-02	0.0	8.007765e-01	3.310974e-02	0.0	8.114568e-01	3.139539e-02	0.0	8.219169e-01	2.987639e-02	0.0	8.321364e-01	2.845466e-02	0.0	8.421177e-01	2.715810e-02	0.0	8.518448e-01	2.587758e-02	0.0	8.613068e-01	2.453545e-02	0.0	8.705169e-01	2.322903e-02	0.0	8.794596e-01	2.184943e-02	0.0	8.881482e-01	2.047886e-02	0.0	8.965841e-01	1.911770e-02	0.0	9.047640e-01	1.773356e-02	0.0	9.127007e-01	1.639056e-02	0.0	9.203893e-01	1.504353e-02	0.0	9.278391e-01	1.372785e-02	0.0	9.350529e-01	1.244137e-02	0.0	9.420328e-01	1.117382e-02	0.0	9.487865e-01	9.947061e-03	0.0	9.553128e-01	8.731206e-03	0.0	9.616215e-01	7.555885e-03	0.0	9.677129e-01	6.397853e-03	0.0	9.735950e-01	5.275412e-03	0.0	9.792690e-01	4.169756e-03	0.0	9.847425e-01	3.094110e-03	0.0	9.900188e-01	2.040658e-03	0.0	9.951022e-01	1.005571e-03	0.0	1.000000e+00	0.000000e+00	0.0	9.950058e-01	2.379104e-04	0.0	9.898213e-01	4.414026e-04	0.0	9.844415e-01	5.924138e-04	0.0	9.788620e-01	6.976603e-04	0.0	9.730786e-01	7.778633e-04	0.0	9.670862e-01	7.988631e-04	0.0	9.608806e-01	7.964345e-04	0.0	9.544574e-01	7.275707e-04	0.0	9.478119e-01	6.418525e-04	0.0	9.409415e-01	4.594514e-04	0.0	9.338400e-01	2.709190e-04	0.0	9.265072e-01	-2.449305e-05	0.0	9.189366e-01	-3.515044e-04	0.0	9.111258e-01	-7.238630e-04	0.0	9.030726e-01	-1.164299e-03	0.0	8.947717e-01	-1.618285e-03	0.0	8.862221e-01	-2.112125e-03	0.0	8.774204e-01	-2.623478e-03	0.0	8.683641e-01	-3.136476e-03	0.0	8.590518e-01	-3.647674e-03	0.0	8.494835e-01	-4.169766e-03	0.0	8.396578e-01	-4.676167e-03	0.0	8.295764e-01	-5.195742e-03	0.0	8.192465e-01	-5.834605e-03	0.0	8.086646e-01	-6.507711e-03	0.0	7.978462e-01	-7.380471e-03	0.0	7.867883e-01	-8.380651e-03	0.0	7.755026e-01	-9.551662e-03	0.0	7.640068e-01	-1.101688e-02	0.0	7.522769e-01	-1.251193e-02	0.0	7.404026e-01	-1.458985e-02	0.0	7.283109e-01	-1.672783e-02	0.0	7.160776e-01	-1.924997e-02	0.0	7.037256e-01	-2.222753e-02	0.0	6.911782e-01	-2.525218e-02	0.0	6.786733e-01	-2.913844e-02	0.0	6.660268e-01	-3.319308e-02	0.0	6.532746e-01	-3.746491e-02	0.0	6.405529e-01	-4.230877e-02	0.0	6.276922e-01	-4.720556e-02	0.0	6.146655e-01	-5.204767e-02	0.0	6.014943e-01	-5.685606e-02	0.0	5.882195e-01	-6.170227e-02	0.0	5.745120e-01	-6.550523e-02	0.0	5.607028e-01	-6.926003e-02	0.0	5.466723e-01	-7.222944e-02	0.0	5.323410e-01	-7.392668e-02	0.0	5.179718e-01	-7.562839e-02	0.0	5.034892e-01	-7.563372e-02	0.0	4.889900e-01	-7.547245e-02	0.0	4.745245e-01	-7.479316e-02	0.0	4.601131e-01	-7.349776e-02	0.0	4.457396e-01	-7.220577e-02	0.0	4.314619e-01	-7.050718e-02	0.0	4.172520e-01	-6.881323e-02	0.0	4.031180e-01	-6.717845e-02	0.0	3.890747e-01	-6.560071e-02	0.0	3.751394e-01	-6.405122e-02	0.0	3.612888e-01	-6.290660e-02	0.0	3.475741e-01	-6.177321e-02	0.0	3.339851e-01	-6.105771e-02	0.0	3.205385e-01	-6.066759e-02	0.0	3.072638e-01	-6.035267e-02	0.0	2.941748e-01	-6.085618e-02	0.0	2.812776e-01	-6.135232e-02	0.0	2.685988e-01	-6.214158e-02	0.0	2.561413e-01	-6.312710e-02	0.0	2.439004e-01	-6.409765e-02	0.0	2.318848e-01	-6.507461e-02	0.0	2.200989e-01	-6.603289e-02	0.0	2.085323e-01	-6.671223e-02	0.0	1.971940e-01	-6.718141e-02	0.0	1.861002e-01	-6.759707e-02	0.0	1.752497e-01	-6.730162e-02	0.0	1.646504e-01	-6.701302e-02	0.0	1.543405e-01	-6.622761e-02	0.0	1.443132e-01	-6.506241e-02	0.0	1.345499e-01	-6.387085e-02	0.0	1.252138e-01	-6.171162e-02	0.0	1.161274e-01	-5.961011e-02	0.0	1.074488e-01	-5.702557e-02	0.0	9.915112e-02	-5.404562e-02	0.0	9.109122e-02	-5.115106e-02	0.0	8.352612e-02	-4.770568e-02	0.0	7.619192e-02	-4.435063e-02	0.0	6.914547e-02	-4.096405e-02	0.0	6.239815e-02	-3.751521e-02	0.0	5.586330e-02	-3.417520e-02	0.0	4.953100e-02	-3.095529e-02	0.0	4.340462e-02	-2.784011e-02	0.0	3.745698e-02	-2.487445e-02	0.0	3.170367e-02	-2.201750e-02	0.0	2.617746e-02	-1.919420e-02	0.0	2.086696e-02	-1.641974e-02	0.0	1.584523e-02	-1.354967e-02	0.0	1.112537e-02	-1.057987e-02	0.0	6.692881e-03	-7.530963e-03	0.0	2.801162e-03	-4.099563e-03	0.0	
CELLS 198	594
2	12	13	2	13	14	2	14	15	2	15	16	2	16	17	2	17	18	2	18	19	2	19	20	2	20	21	2	21	22	2	22	23	2	23	24	2	24	25	2	25	26	2	26	27	2	27	28	2	28	29	2	29	30	2	30	31	2	31	32	2	32	33	2	33	34	2	34	35	2	35	36	2	36	37	2	37	38	2	38	39	2	39	40	2	40	41	2	41	42	2	42	43	2	43	44	2	44	45	2	45	46	2	46	47	2	47	48	2	48	49	2	49	50	2	50	51	2	51	52	2	52	53	2	53	54	2	54	55	2	55	56	2	56	57	2	57	58	2	58	59	2	59	60	2	60	61	2	61	62	2	62	63	2	63	64	2	64	65	2	65	66	2	66	67	2	67	68	2	68	69	2	69	70	2	70	71	2	71	72	2	72	73	2	73	74	2	74	75	2	75	76	2	76	77	2	77	78	2	78	79	2	79	80	2	80	81	2	81	82	2	82	83	2	83	84	2	84	85	2	85	86	2	86	87	2	87	88	2	88	89	2	89	90	2	90	91	2	91	92	2	92	93	2	93	94	2	94	95	2	95	96	2	96	97	2	97	98	2	98	99	2	99	100	2	100	101	2	101	102	2	102	103	2	103	104	2	104	105	2	105	106	2	106	107	2	107	108	2	108	109	2	109	110	2	110	111	2	111	112	2	112	113	2	113	114	2	114	115	2	115	116	2	116	117	2	117	118	2	118	119	2	119	120	2	120	121	2	121	122	2	122	123	2	123	124	2	124	125	2	125	126	2	126	127	2	127	128	2	128	129	2	129	130	2	130	131	2	131	132	2	132	133	2	133	134	2	134	135	2	135	136	2	136	137	2	137	138	2	138	139	2	139	140	2	140	141	2	141	142	2	142	143	2	143	144	2	144	145	2	145	146	2	146	147	2	0	1	2	1	2	2	2	3	2	3	4	2	4	5	2	5	6	2	6	7	2	7	8	2	8	9	2	9	10	2	10	11	2	11	12	2	147	148	2	148	149	2	149	150	2	150	151	2	151	152	2	152	153	2	153	154	2	154	155	2	155	156	2	156	157	2	157	158	2	158	159	2	159	160	2	160	161	2	161	162	2	162	163	2	163	164	2	164	165	2	165	166	2	166	167	2	167	168	2	168	169	2	169	170	2	170	171	2	171	172	2	172	173	2	173	174	2	174	175	2	175	176	2	176	177	2	177	178	2	178	179	2	179	180	2	180	181	2	181	182	2	182	183	2	183	184	2	184	185	2	185	186	2	186	187	2	187	188	2	188	189	2	189	190	2	190	191	2	191	192	2	192	193	2	193	194	2	194	195	2	195	196	2	196	197	2	197	0	
CELL_TYPES 198
3	3	3	3	3	3	3	3	3	3	3	3	3	3	3	3	3	3	3	3	3	3	3	3	3	3	3	3	3	3	3	3	3	3	3	3	3	3	3	3	3	3	3	3	3	3	3	3	3	3	3	3	3	3	3	3	3	3	3	3	3	3	3	3	3	3	3	3	3	3	3	3	3	3	3	3	3	3	3	3	3	3	3	3	3	3	3	3	3	3	3	3	3	3	3	3	3	3	3	3	3	3	3	3	3	3	3	3	3	3	3	3	3	3	3	3	3	3	3	3	3	3	3	3	3	3	3	3	3	3	3	3	3	3	3	3	3	3	3	3	3	3	3	3	3	3	3	3	3	3	3	3	3	3	3	3	3	3	3	3	3	3	3	3	3	3	3	3	3	3	3	3	3	3	3	3	3	3	3	3	3	3	3	3	3	3	3	3	3	3	3	3	3	3	3	3	3	3	
POINT_DATA 198

SCALARS Density double 1
LOOKUP_TABLE default
1.576491e+00	1.284452e+00	1.272630e+00	1.188087e+00	1.136645e+00	1.092457e+00	1.075821e+00	1.044011e+00	1.020875e+00	9.882275e-01	9.705831e-01	9.694065e-01	1.023081e+00	1.115689e+00	1.212616e+00	1.289820e+00	1.335763e+00	1.358933e+00	1.366045e+00	1.358101e+00	1.329016e+00	1.299458e+00	1.266794e+00	1.213367e+00	1.167627e+00	1.124425e+00	1.047154e+00	9.855349e-01	9.351459e-01	8.583685e-01	8.240099e-01	7.495983e-01	6.805470e-01	6.492614e-01	5.920245e-01	5.632252e-01	5.204181e-01	4.740956e-01	4.693923e-01	4.542656e-01	4.958724e-01	6.620969e-01	1.018483e+00	1.137320e+00	1.161689e+00	1.154706e+00	1.164520e+00	1.163444e+00	1.146629e+00	1.142312e+00	1.126423e+00	1.106342e+00	1.087956e+00	1.061938e+00	1.033344e+00	1.013539e+00	9.791508e-01	9.541692e-01	9.415235e-01	9.164152e-01	9.186502e-01	9.124292e-01	9.333318e-01	9.855669e-01	1.006430e+00	1.043126e+00	1.072070e+00	1.094436e+00	1.120290e+00	1.137895e+00	1.150259e+00	1.164306e+00	1.171315e+00	1.172188e+00	1.176809e+00	1.176236e+00	1.176604e+00	1.176903e+00	1.176243e+00	1.177888e+00	1.180174e+00	1.182284e+00	1.186507e+00	1.189030e+00	1.192651e+00	1.196138e+00	1.199248e+00	1.202802e+00	1.205586e+00	1.208594e+00	1.211587e+00	1.214404e+00	1.217538e+00	1.220280e+00	1.223434e+00	1.226394e+00	1.228691e+00	1.236714e+00	1.222296e+00	1.245808e+00	1.362100e+00	1.312087e+00	1.320426e+00	1.320721e+00	1.323150e+00	1.324602e+00	1.325480e+00	1.327182e+00	1.327695e+00	1.328121e+00	1.329134e+00	1.327509e+00	1.328272e+00	1.326749e+00	1.326221e+00	1.325853e+00	1.325198e+00	1.324791e+00	1.325794e+00	1.326500e+00	1.328217e+00	1.332320e+00	1.335445e+00	1.339166e+00	1.342863e+00	1.344357e+00	1.347798e+00	1.347179e+00	1.350741e+00	1.351024e+00	1.347433e+00	1.350416e+00	1.342606e+00	1.342882e+00	1.337723e+00	1.321818e+00	1.315149e+00	1.298706e+00	1.272545e+00	1.252641e+00	1.235029e+00	1.110394e+00	7.904365e-01	6.570392e-01	6.285131e-01	7.143481e-01	7.740428e-01	8.616703e-01	9.615863e-01	1.004712e+00	1.068555e+00	1.117304e+00	1.160172e+00	1.206806e+00	1.236777e+00	1.260508e+00	1.289094e+00	1.305281e+00	1.319922e+00	1.335755e+00	1.334432e+00	1.350975e+00	1.348079e+00	1.332539e+00	1.325438e+00	1.302864e+00	1.278722e+00	1.254658e+00	1.216103e+00	1.180658e+00	1.152245e+00	1.093609e+00	1.042297e+00	9.894793e-01	9.486422e-01	9.527329e-01	9.483754e-01	9.987048e-01	1.061154e+00	1.092321e+00	1.163551e+00	1.199023e+00	1.244442e+00	1.307024e+00	1.338760e+00	1.377729e+00	1.412563e+00	1.438085e+00	1.460897e+00	1.480107e+00	1.494172e+00	1.509228e+00	1.524883e+00	1.540659e+00	1.564972e+00	1.589521e+00	1.601922e+00	1.681240e+00	
VECTORS Momentum double
1.673958e+01	1.825375e+02	0.0	1.564292e+02	1.886619e+02	0.0	1.925604e+02	1.868541e+02	0.0	2.338733e+02	1.727937e+02	0.0	2.584721e+02	1.591378e+02	0.0	2.755075e+02	1.403343e+02	0.0	2.883404e+02	1.296586e+02	0.0	2.956689e+02	1.158288e+02	0.0	3.030903e+02	1.056915e+02	0.0	3.073068e+02	9.227073e+01	0.0	3.126979e+02	7.977692e+01	0.0	3.148749e+02	6.209229e+01	0.0	3.146618e+02	4.690681e+01	0.0	3.084751e+02	2.888770e+01	0.0	2.940625e+02	1.777891e+01	0.0	2.799350e+02	1.943607e+01	0.0	2.673031e+02	2.914872e+01	0.0	2.608254e+02	4.227894e+01	0.0	2.579318e+02	5.839578e+01	0.0	2.602080e+02	7.565467e+01	0.0	2.659367e+02	8.651182e+01	0.0	2.718578e+02	9.531685e+01	0.0	2.817129e+02	1.041760e+02	0.0	2.906211e+02	1.040395e+02	0.0	2.979496e+02	1.018277e+02	0.0	3.071000e+02	1.023335e+02	0.0	3.126890e+02	8.999949e+01	0.0	3.142902e+02	7.823467e+01	0.0	3.185446e+02	6.901271e+01	0.0	3.114997e+02	4.860187e+01	0.0	3.105869e+02	4.099191e+01	0.0	2.996238e+02	2.295379e+01	0.0	2.850929e+02	5.381196e+00	0.0	2.799557e+02	-2.466001e+00	0.0	2.634830e+02	-1.616482e+01	0.0	2.559696e+02	-2.323969e+01	0.0	2.431637e+02	-3.305192e+01	0.0	2.245620e+02	-4.205302e+01	0.0	2.253316e+02	-4.481110e+01	0.0	2.164967e+02	-4.529042e+01	0.0	2.225096e+02	-4.730949e+01	0.0	2.241793e+02	-4.879857e+01	0.0	2.111344e+02	-3.468498e+01	0.0	1.963744e+02	-2.950404e+01	0.0	1.875050e+02	-1.573050e+01	0.0	1.780085e+02	-1.026636e+01	0.0	1.735315e+02	-1.698892e-01	0.0	1.767444e+02	1.058387e+01	0.0	1.809109e+02	1.391327e+01	0.0	1.859266e+02	2.044122e+01	0.0	1.940253e+02	2.486727e+01	0.0	2.018270e+02	2.672124e+01	0.0	2.106768e+02	2.904639e+01	0.0	2.206452e+02	2.839035e+01	0.0	2.281287e+02	2.491011e+01	0.0	2.365112e+02	2.393927e+01	0.0	2.432059e+02	1.722184e+01	0.0	2.466646e+02	9.805395e+00	0.0	2.516970e+02	5.114525e+00	0.0	2.515850e+02	-5.471417e+00	0.0	2.544596e+02	-1.043088e+01	0.0	2.525373e+02	-2.241859e+01	0.0	2.441895e+02	-3.457161e+01	0.0	2.408476e+02	-3.828688e+01	0.0	2.318447e+02	-4.609332e+01	0.0	2.222280e+02	-4.894816e+01	0.0	2.132063e+02	-5.030770e+01	0.0	2.021310e+02	-5.145533e+01	0.0	1.925703e+02	-4.875534e+01	0.0	1.853300e+02	-4.543742e+01	0.0	1.771470e+02	-4.253638e+01	0.0	1.716989e+02	-3.693252e+01	0.0	1.693444e+02	-3.175815e+01	0.0	1.668169e+02	-2.893251e+01	0.0	1.659509e+02	-2.534707e+01	0.0	1.658451e+02	-2.359875e+01	0.0	1.656273e+02	-2.228821e+01	0.0	1.659222e+02	-2.166829e+01	0.0	1.657258e+02	-2.262541e+01	0.0	1.643380e+02	-2.335024e+01	0.0	1.631588e+02	-2.417437e+01	0.0	1.610108e+02	-2.516500e+01	0.0	1.589561e+02	-2.535147e+01	0.0	1.565561e+02	-2.587652e+01	0.0	1.540581e+02	-2.607123e+01	0.0	1.517289e+02	-2.611547e+01	0.0	1.492136e+02	-2.622889e+01	0.0	1.464596e+02	-2.596818e+01	0.0	1.437113e+02	-2.585468e+01	0.0	1.409753e+02	-2.561119e+01	0.0	1.383695e+02	-2.544478e+01	0.0	1.356497e+02	-2.527113e+01	0.0	1.329106e+02	-2.499612e+01	0.0	1.300118e+02	-2.475567e+01	0.0	1.271135e+02	-2.447708e+01	0.0	1.238085e+02	-2.427211e+01	0.0	1.194410e+02	-2.371944e+01	0.0	1.161141e+02	-2.309780e+01	0.0	1.058662e+02	-2.395464e+01	0.0	1.372026e+02	-6.464382e-01	0.0	2.275547e+02	-1.486899e+01	0.0	2.023329e+02	-6.261788e+00	0.0	2.035430e+02	-4.947086e+00	0.0	2.011050e+02	-3.168561e+00	0.0	2.005136e+02	-1.752110e+00	0.0	1.994751e+02	-3.067214e-01	0.0	1.986567e+02	1.117333e+00	0.0	1.980521e+02	2.337313e+00	0.0	1.972572e+02	3.902927e+00	0.0	1.970087e+02	5.227476e+00	0.0	1.967960e+02	6.575384e+00	0.0	1.968583e+02	8.246807e+00	0.0	1.972583e+02	8.929494e+00	0.0	1.971929e+02	1.013093e+01	0.0	1.978037e+02	1.080723e+01	0.0	1.981062e+02	1.112691e+01	0.0	1.983101e+02	1.146734e+01	0.0	1.984236e+02	1.141651e+01	0.0	1.976730e+02	1.102247e+01	0.0	1.966128e+02	1.078237e+01	0.0	1.947265e+02	1.037989e+01	0.0	1.922371e+02	9.896602e+00	0.0	1.893263e+02	1.076489e+01	0.0	1.865041e+02	1.164956e+01	0.0	1.841487e+02	1.325348e+01	0.0	1.816444e+02	1.558390e+01	0.0	1.792518e+02	1.741716e+01	0.0	1.776608e+02	2.058915e+01	0.0	1.767150e+02	2.250224e+01	0.0	1.744861e+02	2.642579e+01	0.0	1.740499e+02	3.072971e+01	0.0	1.744672e+02	3.326130e+01	0.0	1.744718e+02	3.907151e+01	0.0	1.763410e+02	4.238343e+01	0.0	1.768049e+02	4.876061e+01	0.0	1.809234e+02	5.731145e+01	0.0	1.883326e+02	6.164588e+01	0.0	1.937419e+02	6.933129e+01	0.0	2.035871e+02	7.749350e+01	0.0	2.176240e+02	8.067857e+01	0.0	2.307055e+02	8.474143e+01	0.0	2.421500e+02	8.596534e+01	0.0	2.564677e+02	8.338273e+01	0.0	2.678785e+02	7.135765e+01	0.0	2.654124e+02	6.281002e+01	0.0	2.969257e+02	4.852751e+01	0.0	3.039393e+02	3.609963e+01	0.0	3.205542e+02	1.776517e+01	0.0	3.323759e+02	-2.706594e+00	0.0	3.312865e+02	-9.488906e+00	0.0	3.336783e+02	-2.325667e+01	0.0	3.296886e+02	-2.961063e+01	0.0	3.261705e+02	-3.435057e+01	0.0	3.224100e+02	-3.879507e+01	0.0	3.166199e+02	-3.714381e+01	0.0	3.121072e+02	-3.556699e+01	0.0	3.083692e+02	-3.459394e+01	0.0	3.039535e+02	-2.939293e+01	0.0	3.010218e+02	-2.483159e+01	0.0	2.979293e+02	-2.000593e+01	0.0	2.951511e+02	-1.175694e+01	0.0	2.946637e+02	-7.887752e+00	0.0	2.924259e+02	1.967395e+00	0.0	2.956228e+02	1.124383e+01	0.0	3.003835e+02	1.488535e+01	0.0	3.030397e+02	2.134601e+01	0.0	3.085966e+02	2.435219e+01	0.0	3.139618e+02	2.506093e+01	0.0	3.180040e+02	2.598199e+01	0.0	3.238210e+02	2.262104e+01	0.0	3.269887e+02	1.624587e+01	0.0	3.278813e+02	1.301683e+01	0.0	3.323080e+02	1.733481e+00	0.0	3.314092e+02	-8.346749e+00	0.0	3.280981e+02	-1.654198e+01	0.0	3.295565e+02	-3.124478e+01	0.0	3.254227e+02	-3.832318e+01	0.0	3.291333e+02	-5.822663e+01	0.0	3.261371e+02	-7.606938e+01	0.0	3.196563e+02	-8.473683e+01	0.0	3.153342e+02	-1.040444e+02	0.0	3.045246e+02	-1.093471e+02	0.0	2.946260e+02	-1.197770e+02	0.0	2.809355e+02	-1.285860e+02	0.0	2.683102e+02	-1.256778e+02	0.0	2.570841e+02	-1.274148e+02	0.0	2.440198e+02	-1.246241e+02	0.0	2.327548e+02	-1.186776e+02	0.0	2.232507e+02	-1.135245e+02	0.0	2.138480e+02	-1.076872e+02	0.0	2.053769e+02	-1.021364e+02	0.0	1.959154e+02	-9.861137e+01	0.0	1.844670e+02	-9.528165e+01	0.0	1.682604e+02	-9.188583e+01	0.0	1.460574e+02	-8.758880e+01	0.0	1.160537e+02	-7.593749e+01	0.0	7.706059e+01	-5.622341e+01	0.0	-2.583898e+00	3.709961e+00	0.0	
SCALARS Energy double 1
LOOKUP_TABLE default
3.449245e+05	2.852281e+05	2.840657e+05	2.678170e+05	2.580737e+05	2.494126e+05	2.465763e+05	2.402034e+05	2.358065e+05	2.291908e+05	2.258106e+05	2.254056e+05	2.359992e+05	2.542408e+05	2.731939e+05	2.884331e+05	2.974075e+05	3.020394e+05	3.035563e+05	3.022437e+05	2.966186e+05	2.909258e+05	2.848921e+05	2.743508e+05	2.653430e+05	2.571567e+05	2.415310e+05	2.289298e+05	2.190256e+05	2.026889e+05	1.957110e+05	1.797683e+05	1.646518e+05	1.580459e+05	1.452023e+05	1.388974e+05	1.293895e+05	1.185411e+05	1.178571e+05	1.138976e+05	1.224439e+05	1.549405e+05	2.272908e+05	2.515938e+05	2.562793e+05	2.543442e+05	2.562334e+05	2.561554e+05	2.527611e+05	2.520985e+05	2.491303e+05	2.452748e+05	2.418743e+05	2.369510e+05	2.313728e+05	2.277625e+05	2.210129e+05	2.160461e+05	2.137962e+05	2.086065e+05	2.093056e+05	2.079344e+05	2.117133e+05	2.223519e+05	2.261870e+05	2.333050e+05	2.388849e+05	2.430195e+05	2.479794e+05	2.513366e+05	2.535687e+05	2.562774e+05	2.576335e+05	2.576956e+05	2.586255e+05	2.584881e+05	2.585508e+05	2.586233e+05	2.584793e+05	2.587799e+05	2.592271e+05	2.596006e+05	2.604270e+05	2.608797e+05	2.615641e+05	2.622269e+05	2.628045e+05	2.634688e+05	2.639715e+05	2.645238e+05	2.650801e+05	2.655969e+05	2.661829e+05	2.666821e+05	2.672720e+05	2.678114e+05	2.681795e+05	2.698144e+05	2.664455e+05	2.723262e+05	3.008407e+05	2.890024e+05	2.908342e+05	2.907889e+05	2.912811e+05	2.915462e+05	2.916988e+05	2.920370e+05	2.921138e+05	2.921956e+05	2.924050e+05	2.920628e+05	2.922441e+05	2.919183e+05	2.918331e+05	2.917681e+05	2.916378e+05	2.915555e+05	2.917368e+05	2.918421e+05	2.921286e+05	2.929015e+05	2.934530e+05	2.941382e+05	2.948410e+05	2.950709e+05	2.957229e+05	2.955428e+05	2.962797e+05	2.962778e+05	2.955178e+05	2.961900e+05	2.945605e+05	2.947183e+05	2.936924e+05	2.905438e+05	2.894704e+05	2.862967e+05	2.812927e+05	2.777927e+05	2.748172e+05	2.492960e+05	1.845594e+05	1.591957e+05	1.532083e+05	1.730168e+05	1.851499e+05	2.039511e+05	2.249443e+05	2.335011e+05	2.466859e+05	2.563095e+05	2.648416e+05	2.741926e+05	2.799478e+05	2.845385e+05	2.902252e+05	2.932708e+05	2.961140e+05	2.992094e+05	2.987274e+05	3.021620e+05	3.014084e+05	2.983588e+05	2.971850e+05	2.926601e+05	2.880107e+05	2.833817e+05	2.756844e+05	2.687887e+05	2.631663e+05	2.512271e+05	2.411695e+05	2.304469e+05	2.219758e+05	2.230423e+05	2.218392e+05	2.325609e+05	2.452216e+05	2.511847e+05	2.658666e+05	2.724951e+05	2.814830e+05	2.938765e+05	2.996926e+05	3.073125e+05	3.139229e+05	3.186457e+05	3.229460e+05	3.265109e+05	3.290581e+05	3.318466e+05	3.347265e+05	3.375173e+05	3.420294e+05	3.464343e+05	3.482062e+05	3.645976e+05	
SCALARS Pressure double 1
LOOKUP_TABLE default
1.337071e+05	1.047388e+05	1.023121e+05	9.289307e+04	8.701815e+04	8.226355e+04	8.004908e+04	7.676426e+04	7.413712e+04	7.084076e+04	6.886407e+04	6.891178e+04	7.461390e+04	8.448875e+04	9.496324e+04	1.031636e+05	1.081376e+05	1.105404e+05	1.111829e+05	1.100836e+05	1.068783e+05	1.035970e+05	9.971385e+04	9.403445e+04	8.915525e+04	8.422516e+04	7.639108e+04	7.028420e+04	6.489007e+04	5.791670e+04	5.446318e+04	4.781406e+04	4.196614e+04	3.907361e+04	3.453978e+04	3.210102e+04	2.861246e+04	2.539703e+04	2.465315e+04	2.402007e+04	2.810579e+04	4.607592e+04	8.192634e+04	9.370309e+04	9.641618e+04	9.623111e+04	9.732158e+04	9.707288e+04	9.536198e+04	9.471383e+04	9.285817e+04	9.061709e+04	8.843534e+04	8.545963e+04	8.235635e+04	7.995384e+04	7.626287e+04	7.364512e+04	7.205573e+04	6.962244e+04	6.960186e+04	6.908439e+04	7.165163e+04	7.687188e+04	7.937087e+04	8.339392e+04	8.660160e+04	8.925767e+04	9.214708e+04	9.413480e+04	9.565654e+04	9.721259e+04	9.798457e+04	9.818738e+04	9.866061e+04	9.862385e+04	9.867292e+04	9.869114e+04	9.863473e+04	9.883373e+04	9.908046e+04	9.934763e+04	9.980342e+04	1.001166e+05	1.005317e+05	1.009274e+05	1.012940e+05	1.017087e+05	1.020515e+05	1.024122e+05	1.027647e+05	1.031031e+05	1.034687e+05	1.038020e+05	1.041695e+05	1.045287e+05	1.048581e+05	1.056591e+05	1.046504e+05	1.059084e+05	1.127007e+05	1.093548e+05	1.100548e+05	1.101896e+05	1.104347e+05	1.106106e+05	1.107246e+05	1.109030e+05	1.109819e+05	1.110294e+05	1.111278e+05	1.109764e+05	1.110268e+05	1.108902e+05	1.108152e+05	1.107684e+05	1.107000e+05	1.106586e+05	1.107819e+05	1.108909e+05	1.111256e+05	1.115984e+05	1.119957e+05	1.124402e+05	1.128597e+05	1.130836e+05	1.134762e+05	1.134684e+05	1.138130e+05	1.139007e+05	1.135705e+05	1.138041e+05	1.130623e+05	1.129885e+05	1.124479e+05	1.107678e+05	1.098163e+05	1.079979e+05	1.050591e+05	1.025162e+05	1.001447e+05	8.782592e+04	5.542168e+04	4.028520e+04	3.761194e+04	4.386339e+04	4.985397e+04	5.765698e+04	6.699880e+04	7.153529e+04	7.773353e+04	8.291028e+04	8.739335e+04	9.220060e+04	9.554480e+04	9.815888e+04	1.011512e+05	1.030199e+05	1.046219e+05	1.063337e+05	1.064139e+05	1.080016e+05	1.078761e+05	1.062078e+05	1.052254e+05	1.028970e+05	1.002167e+05	9.753960e+04	9.353149e+04	8.966581e+04	8.666187e+04	8.079905e+04	7.527775e+04	6.996470e+04	6.603739e+04	6.621285e+04	6.609304e+04	7.065158e+04	7.695091e+04	8.045039e+04	8.739416e+04	9.153513e+04	9.633676e+04	1.029435e+05	1.067626e+05	1.109739e+05	1.149393e+05	1.179652e+05	1.205907e+05	1.228580e+05	1.245810e+05	1.263636e+05	1.282368e+05	1.302356e+05	1.331051e+05	1.361535e+05	1.381464e+05	1.458366e+05	
SCALARS Temperature double 1
LOOKUP_TABLE default
2.954565e+02	2.840667e+02	2.800626e+02	2.723739e+02	2.666954e+02	2.623213e+02	2.592070e+02	2.561441e+02	2.529841e+02	2.497219e+02	2.471669e+02	2.476383e+02	2.540623e+02	2.638069e+02	2.728115e+02	2.786299e+02	2.820188e+02	2.833697e+02	2.835328e+02	2.823715e+02	2.801495e+02	2.777253e+02	2.742078e+02	2.699760e+02	2.659948e+02	2.609406e+02	2.541337e+02	2.484369e+02	2.417292e+02	2.350501e+02	2.302507e+02	2.222068e+02	2.148183e+02	2.096497e+02	2.032405e+02	1.985487e+02	1.915284e+02	1.866153e+02	1.829645e+02	1.842021e+02	1.974496e+02	2.424280e+02	2.802207e+02	2.870130e+02	2.891282e+02	2.903183e+02	2.911337e+02	2.906583e+02	2.897229e+02	2.888412e+02	2.871766e+02	2.853323e+02	2.831685e+02	2.803445e+02	2.776403e+02	2.748078e+02	2.713276e+02	2.688741e+02	2.666046e+02	2.646594e+02	2.639374e+02	2.637613e+02	2.674363e+02	2.717138e+02	2.747312e+02	2.785019e+02	2.814059e+02	2.841092e+02	2.865375e+02	2.881897e+02	2.897006e+02	2.908612e+02	2.914165e+02	2.918024e+02	2.920573e+02	2.920908e+02	2.921447e+02	2.921244e+02	2.921213e+02	2.923018e+02	2.924640e+02	2.927292e+02	2.930254e+02	2.933213e+02	2.936430e+02	2.939397e+02	2.942423e+02	2.945739e+02	2.948841e+02	2.951900e+02	2.954742e+02	2.957598e+02	2.960444e+02	2.963307e+02	2.966131e+02	2.969177e+02	2.972963e+02	2.976240e+02	2.982601e+02	2.961484e+02	2.882358e+02	2.903390e+02	2.903522e+02	2.906430e+02	2.907549e+02	2.908986e+02	2.910055e+02	2.911007e+02	2.911952e+02	2.912265e+02	2.912623e+02	2.912216e+02	2.911865e+02	2.911620e+02	2.910810e+02	2.910389e+02	2.910028e+02	2.909835e+02	2.910871e+02	2.912186e+02	2.914576e+02	2.917964e+02	2.921499e+02	2.924944e+02	2.927776e+02	2.930322e+02	2.932989e+02	2.934134e+02	2.935285e+02	2.936932e+02	2.936221e+02	2.935760e+02	2.933591e+02	2.931073e+02	2.928300e+02	2.919255e+02	2.908857e+02	2.896909e+02	2.876015e+02	2.850994e+02	2.824758e+02	2.755345e+02	2.442548e+02	2.135918e+02	2.084691e+02	2.139059e+02	2.243702e+02	2.330994e+02	2.427220e+02	2.480328e+02	2.534206e+02	2.585041e+02	2.624135e+02	2.661501e+02	2.691201e+02	2.712779e+02	2.733485e+02	2.749462e+02	2.761244e+02	2.773155e+02	2.777999e+02	2.784925e+02	2.787664e+02	2.776558e+02	2.765615e+02	2.751274e+02	2.730198e+02	2.708233e+02	2.679278e+02	2.645655e+02	2.620074e+02	2.573797e+02	2.515971e+02	2.463217e+02	2.425034e+02	2.421037e+02	2.427760e+02	2.464422e+02	2.526188e+02	2.565713e+02	2.616540e+02	2.659443e+02	2.696793e+02	2.743758e+02	2.778093e+02	2.805999e+02	2.834595e+02	2.857589e+02	2.875574e+02	2.891616e+02	2.904569e+02	2.916739e+02	2.929588e+02	2.944785e+02	2.962909e+02	2.983959e+02	3.004199e+02	3.021810e+02	
SCALARS Mach double 1
LOOKUP_TABLE default
3.374299e-01	5.647136e-01	6.284480e-01	7.397557e-01	8.156906e-01	8.716754e-01	9.105054e-01	9.480093e-01	9.861044e-01	1.024901e+00	1.054972e+00	1.049442e+00	9.731681e-01	8.528666e-01	7.337169e-01	6.501442e-01	5.979348e-01	5.761802e-01	5.735137e-01	5.923125e-01	6.271159e-01	6.635893e-01	7.142398e-01	7.723396e-01	8.247858e-01	8.889847e-01	9.723096e-01	1.040056e+00	1.118247e+00	1.195027e+00	1.249831e+00	1.341501e+00	1.426006e+00	1.485561e+00	1.560180e+00	1.615498e+00	1.699637e+00	1.759675e+00	1.804996e+00	1.789560e+00	1.628556e+00	1.110162e+00	6.260212e-01	5.141025e-01	4.751731e-01	4.520686e-01	4.356487e-01	4.452841e-01	4.637481e-01	4.806043e-01	5.111772e-01	5.434240e-01	5.794595e-01	6.241169e-01	6.648423e-01	7.057667e-01	7.540755e-01	7.870475e-01	8.168717e-01	8.419816e-01	8.512044e-01	8.534469e-01	8.060118e-01	7.488084e-01	7.068521e-01	6.520584e-01	6.076127e-01	5.640082e-01	5.225294e-01	4.927545e-01	4.641807e-01	4.411947e-01	4.298300e-01	4.217794e-01	4.163880e-01	4.156744e-01	4.145251e-01	4.149570e-01	4.150235e-01	4.111588e-01	4.076569e-01	4.018759e-01	3.953299e-01	3.886953e-01	3.813675e-01	3.744973e-01	3.673721e-01	3.594177e-01	3.518317e-01	3.442025e-01	3.369757e-01	3.295686e-01	3.220309e-01	3.142820e-01	3.064596e-01	2.978125e-01	2.867255e-01	2.767960e-01	2.564940e-01	3.192365e-01	4.919027e-01	4.516585e-01	4.513973e-01	4.455915e-01	4.433423e-01	4.404374e-01	4.382656e-01	4.363238e-01	4.343890e-01	4.337469e-01	4.330107e-01	4.338468e-01	4.345687e-01	4.350698e-01	4.367269e-01	4.375848e-01	4.383201e-01	4.387132e-01	4.366014e-01	4.339084e-01	4.289788e-01	4.219052e-01	4.144138e-01	4.069978e-01	4.008124e-01	3.951784e-01	3.892021e-01	3.866113e-01	3.839900e-01	3.802126e-01	3.818468e-01	3.829035e-01	3.878410e-01	3.935032e-01	3.996590e-01	4.191819e-01	4.406990e-01	4.643682e-01	5.035170e-01	5.473900e-01	5.906414e-01	6.954177e-01	1.088966e+00	1.440097e+00	1.499235e+00	1.436487e+00	1.316838e+00	1.217326e+00	1.106757e+00	1.044809e+00	9.808748e-01	9.191675e-01	8.705132e-01	8.227739e-01	7.837779e-01	7.547516e-01	7.262649e-01	7.038039e-01	6.869436e-01	6.696182e-01	6.624869e-01	6.521980e-01	6.480989e-01	6.646142e-01	6.806201e-01	7.012282e-01	7.308313e-01	7.609196e-01	7.995565e-01	8.431844e-01	8.756241e-01	9.329543e-01	1.002660e+00	1.064867e+00	1.109289e+00	1.113916e+00	1.106131e+00	1.063457e+00	9.904745e-01	9.428158e-01	8.800611e-01	8.254394e-01	7.763146e-01	7.118743e-01	6.623474e-01	6.201749e-01	5.747126e-01	5.361018e-01	5.043155e-01	4.745361e-01	4.493144e-01	4.244749e-01	3.968108e-01	3.617208e-01	3.153687e-01	2.519615e-01	1.713768e-01	7.716705e-03	
SCALARS Pressure_Coefficient double 1
LOOKUP_TABLE default