# vtk DataFile Version 3.0
vtk output
ASCII
DATASET UNSTRUCTURED_GRID
POINTS 1844 double
1.000000e+02	0.000000e+00	0.0	9.917900e+01	1.278772e+01	0.0	9.672949e+01	2.536546e+01	0.0	9.269168e+01	3.752670e+01	0.0	8.713187e+01	4.907176e+01	0.0	8.014136e+01	5.981105e+01	0.0	7.183494e+01	6.956826e+01	0.0	6.234898e+01	7.818315e+01	0.0	5.183926e+01	8.551428e+01	0.0	4.047833e+01	9.144126e+01	0.0	2.845276e+01	9.586679e+01	0.0	1.595999e+01	9.871818e+01	0.0	3.205158e+00	9.994862e+01	0.0	-9.602303e+00	9.953791e+01	0.0	-2.225209e+01	9.749279e+01	0.0	-3.453651e+01	9.384684e+01	0.0	-4.625383e+01	8.865993e+01	0.0	-5.721167e+01	8.201723e+01	0.0	-6.723009e+01	7.402780e+01	0.0	-7.614460e+01	6.482284e+01	0.0	-8.380881e+01	5.455349e+01	0.0	-9.009689e+01	4.338837e+01	0.0	-9.490557e+01	3.151082e+01	0.0	-9.815592e+01	1.911586e+01	0.0	-9.979454e+01	6.407022e+00	0.0	-9.979454e+01	-6.407022e+00	0.0	-9.815592e+01	-1.911586e+01	0.0	-9.490557e+01	-3.151082e+01	0.0	-9.009689e+01	-4.338837e+01	0.0	-8.380881e+01	-5.455349e+01	0.0	-7.614460e+01	-6.482284e+01	0.0	-6.723009e+01	-7.402780e+01	0.0	-5.721167e+01	-8.201723e+01	0.0	-4.625383e+01	-8.865993e+01	0.0	-3.453651e+01	-9.384684e+01	0.0	-2.225209e+01	-9.749279e+01	0.0	-9.602303e+00	-9.953791e+01	0.0	3.205158e+00	-9.994862e+01	0.0	1.595999e+01	-9.871818e+01	0.0	2.845276e+01	-9.586679e+01	0.0	4.047833e+01	-9.144126e+01	0.0	5.183926e+01	-8.551428e+01	0.0	6.234898e+01	-7.818315e+01	0.0	7.183494e+01	-6.956826e+01	0.0	8.014136e+01	-5.981105e+01	0.0	8.713187e+01	-4.907176e+01	0.0	9.269168e+01	-3.752670e+01	0.0	9.672949e+01	-2.536546e+01	0.0	9.917900e+01	-1.278772e+01	0.0	0.000000e+00	0.000000e+00	0.0	3.279363e-03	3.774358e-03	0.0	6.788404e-03	7.566708e-03	0.0	1.128564e-02	1.051608e-02	0.0	1.602007e-02	1.344146e-02	0.0	2.126671e-02	1.585638e-02	0.0	2.673048e-02	1.828633e-02	0.0	3.251019e-02	2.050903e-02	0.0	3.851446e-02	2.274300e-02	0.0	4.479901e-02	2.484612e-02	0.0	5.134283e-02	2.686318e-02	0.0	5.818560e-02	2.867564e-02	0.0	6.533388e-02	3.017423e-02	0.0	7.276869e-02	3.146249e-02	0.0	8.051469e-02	3.221368e-02	0.0	8.850629e-02	3.295138e-02	0.0	9.673866e-02	3.373709e-02	0.0	1.051648e-01	3.493217e-02	0.0	1.138021e-01	3.642098e-02	0.0	1.225635e-01	3.850549e-02	0.0	1.315083e-01	4.092224e-02	0.0	1.406752e-01	4.347837e-02	0.0	1.500549e-01	4.620767e-02	0.0	1.596756e-01	4.900714e-02	0.0	1.696775e-01	5.133268e-02	0.0	1.799336e-01	5.366690e-02	0.0	1.905050e-01	5.559619e-02	0.0	2.014582e-01	5.669492e-02	0.0	2.126501e-01	5.781760e-02	0.0	2.241188e-01	5.782336e-02	0.0	2.358296e-01	5.751632e-02	0.0	2.477598e-01	5.707780e-02	0.0	2.598896e-01	5.622896e-02	0.0	2.722312e-01	5.536529e-02	0.0	2.847931e-01	5.479377e-02	0.0	2.975582e-01	5.434787e-02	0.0	3.105087e-01	5.409290e-02	0.0	3.236274e-01	5.480946e-02	0.0	3.369133e-01	5.553514e-02	0.0	3.503107e-01	5.679802e-02	0.0	3.638284e-01	5.835903e-02	0.0	3.774760e-01	5.995489e-02	0.0	3.912277e-01	6.169510e-02	0.0	4.050861e-01	6.344881e-02	0.0	4.190701e-01	6.491971e-02	0.0	4.331540e-01	6.621559e-02	0.0	4.473096e-01	6.743155e-02	0.0	4.615591e-01	6.801203e-02	0.0	4.758458e-01	6.859401e-02	0.0	4.901622e-01	6.879599e-02	0.0	5.044905e-01	6.877650e-02	0.0	5.188101e-01	6.868782e-02	0.0	5.331003e-01	6.820255e-02	0.0	5.473535e-01	6.771854e-02	0.0	5.615419e-01	6.696730e-02	0.0	5.756576e-01	6.608166e-02	0.0	5.896853e-01	6.510818e-02	0.0	6.035798e-01	6.366738e-02	0.0	6.173672e-01	6.223768e-02	0.0	6.309691e-01	6.032476e-02	0.0	6.444039e-01	5.816362e-02	0.0	6.576770e-01	5.593178e-02	0.0	6.706377e-01	5.292142e-02	0.0	6.834352e-01	4.994896e-02	0.0	6.959886e-01	4.673907e-02	0.0	7.082931e-01	4.331172e-02	0.0	7.204084e-01	3.993707e-02	0.0	7.323457e-01	3.668719e-02	0.0	7.440804e-01	3.350118e-02	0.0	7.556641e-01	3.062988e-02	0.0	7.671516e-01	2.833302e-02	0.0	7.784126e-01	2.608144e-02	0.0	7.896003e-01	2.498100e-02	0.0	8.005673e-01	2.402985e-02	0.0	8.113159e-01	2.358758e-02	0.0	8.218335e-01	2.345712e-02	0.0	8.321029e-01	2.336275e-02	0.0	8.421226e-01	2.332041e-02	0.0	8.518885e-01	2.319551e-02	0.0	8.613877e-01	2.261289e-02	0.0	8.706358e-01	2.204568e-02	0.0	8.795959e-01	2.107838e-02	0.0	8.882981e-01	2.003447e-02	0.0	8.967391e-01	1.891451e-02	0.0	9.049073e-01	1.762243e-02	0.0	9.128344e-01	1.636850e-02	0.0	9.205042e-01	1.504093e-02	0.0	9.279353e-01	1.373138e-02	0.0	9.351322e-01	1.244843e-02	0.0	9.420966e-01	1.118141e-02	0.0	9.488368e-01	9.954657e-03	0.0	9.553514e-01	8.738367e-03	0.0	9.616501e-01	7.562375e-03	0.0	9.677330e-01	6.403469e-03	0.0	9.736083e-01	5.280082e-03	0.0	9.792772e-01	4.173984e-03	0.0	9.847468e-01	3.098022e-03	0.0	9.900208e-01	2.044627e-03	0.0	9.951030e-01	1.009731e-03	0.0	1.000000e+00	0.000000e+00	0.0	9.950046e-01	2.149509e-04	0.0	9.898208e-01	4.072440e-04	0.0	9.844428e-01	5.515493e-04	0.0	9.788665e-01	6.534562e-04	0.0	9.730875e-01	7.321308e-04	0.0	9.671008e-01	7.550098e-04	0.0	9.609023e-01	7.553554e-04	0.0	9.544876e-01	6.906206e-04	0.0	9.478522e-01	6.098432e-04	0.0	9.409933e-01	4.322196e-04	0.0	9.339052e-01	2.486593e-04	0.0	9.265875e-01	-4.246189e-05	0.0	9.190339e-01	-3.666178e-04	0.0	9.112426e-01	-7.468227e-04	0.0	9.032123e-01	-1.217310e-03	0.0	8.949364e-01	-1.702188e-03	0.0	8.864193e-01	-2.303925e-03	0.0	8.776533e-01	-2.937421e-03	0.0	8.686400e-01	-3.639107e-03	0.0	8.593798e-01	-4.429960e-03	0.0	8.498680e-01	-5.253942e-03	0.0	8.401216e-01	-6.290294e-03	0.0	8.301233e-01	-7.353438e-03	0.0	8.199216e-01	-8.812270e-03	0.0	8.094840e-01	-1.040145e-02	0.0	7.988704e-01	-1.240546e-02	0.0	7.880729e-01	-1.476521e-02	0.0	7.770813e-01	-1.734437e-02	0.0	7.660046e-01	-2.055539e-02	0.0	7.547038e-01	-2.383136e-02	0.0	7.432440e-01	-2.736835e-02	0.0	7.315927e-01	-3.103728e-02	0.0	7.197183e-01	-3.470853e-02	0.0	7.075498e-01	-3.811627e-02	0.0	6.951901e-01	-4.157754e-02	0.0	6.825117e-01	-4.451387e-02	0.0	6.695484e-01	-4.702606e-02	0.0	6.564188e-01	-4.957049e-02	0.0	6.429465e-01	-5.083846e-02	0.0	6.293266e-01	-5.211055e-02	0.0	6.155479e-01	-5.300876e-02	0.0	6.016205e-01	-5.349321e-02	0.0	5.875843e-01	-5.398144e-02	0.0	5.734473e-01	-5.426797e-02	0.0	5.592290e-01	-5.455351e-02	0.0	5.449483e-01	-5.498903e-02	0.0	5.306196e-01	-5.557141e-02	0.0	5.162538e-01	-5.616331e-02	0.0	5.018783e-01	-5.701361e-02	0.0	4.874952e-01	-5.786435e-02	0.0	4.731217e-01	-5.874802e-02	0.0	4.587724e-01	-5.965695e-02	0.0	4.444599e-01	-6.055242e-02	0.0	4.301924e-01	-6.131963e-02	0.0	4.159917e-01	-6.208324e-02	0.0	4.018686e-01	-6.277064e-02	0.0	3.878384e-01	-6.340692e-02	0.0	3.739177e-01	-6.405419e-02	0.0	3.601242e-01	-6.480454e-02	0.0	3.464653e-01	-6.554758e-02	0.0	3.329697e-01	-6.652691e-02	0.0	3.196415e-01	-6.763132e-02	0.0	3.064883e-01	-6.878325e-02	0.0	2.935519e-01	-7.029697e-02	0.0	2.808036e-01	-7.178866e-02	0.0	2.682423e-01	-7.316533e-02	0.0	2.558805e-01	-7.446371e-02	0.0	2.437262e-01	-7.565336e-02	0.0	2.317379e-01	-7.601470e-02	0.0	2.199772e-01	-7.636917e-02	0.0	2.084875e-01	-7.578234e-02	0.0	1.972625e-01	-7.452995e-02	0.0	1.862897e-01	-7.324222e-02	0.0	1.758177e-01	-7.057378e-02	0.0	1.655867e-01	-6.796674e-02	0.0	1.557084e-01	-6.505633e-02	0.0	1.462068e-01	-6.176715e-02	0.0	1.369448e-01	-5.856085e-02	0.0	1.279866e-01	-5.525967e-02	0.0	1.192832e-01	-5.200003e-02	0.0	1.108092e-01	-4.884960e-02	0.0	1.025252e-01	-4.591377e-02	0.0	9.447719e-02	-4.306158e-02	0.0	8.664188e-02	-4.035425e-02	0.0	7.902186e-02	-3.777704e-02	0.0	7.163199e-02	-3.527869e-02	0.0	6.446600e-02	-3.286820e-02	0.0	5.752450e-02	-3.053322e-02	0.0	5.083376e-02	-2.818662e-02	0.0	4.436824e-02	-2.589036e-02	0.0	3.817038e-02	-2.352164e-02	0.0	3.220383e-02	-2.116514e-02	0.0	2.654580e-02	-1.863675e-02	0.0	2.112770e-02	-1.609410e-02	0.0	1.606250e-02	-1.331063e-02	0.0	1.130278e-02	-1.041353e-02	0.0	6.836093e-03	-7.416053e-03	0.0	2.917201e-03	-4.017238e-03	0.0	4.171055e-01	1.330128e-01	0.0	4.454359e-01	1.202908e-01	0.0	4.496644e-01	1.487061e-01	0.0	8.684277e+01	2.701510e+01	0.0	8.233330e+01	3.607323e+01	0.0	7.725229e+01	2.664136e+01	0.0	7.931895e+01	-1.234085e+01	0.0	7.854877e+01	-2.288936e+01	0.0	8.823057e+01	-1.721782e+01	0.0	8.697172e+01	-4.749554e+00	0.0	3.436802e+01	2.252475e+01	0.0	4.520785e+01	2.780288e+01	0.0	3.696048e+01	3.496968e+01	0.0	7.333921e+01	3.431473e+01	0.0	6.781648e+01	-3.126174e+01	0.0	7.556783e+01	-4.249983e+01	0.0	8.169522e+01	-3.516683e+01	0.0	8.783937e+01	-2.755001e+01	0.0	5.385815e+01	2.198618e+01	0.0	4.338373e+01	1.742004e+01	0.0	5.162694e+01	1.182718e+01	0.0	4.093157e+01	-5.504537e+01	0.0	4.650488e+01	-6.194276e+01	0.0	4.959990e+01	-5.514033e+01	0.0	6.878717e+01	5.949650e+01	0.0	7.276295e+01	5.063442e+01	0.0	5.860702e+01	6.475808e+01	0.0	4.825963e+01	-7.162787e+01	0.0	5.805012e+01	-7.364844e+01	0.0	5.682970e+01	-6.268495e+01	0.0	6.646188e+01	-4.535794e+01	0.0	4.872041e+01	7.240892e+01	0.0	2.669906e+01	6.816614e+01	0.0	2.999348e+01	5.739400e+01	0.0	3.625927e+01	6.973904e+01	0.0	3.056903e+01	8.618882e+01	0.0	3.977672e+01	8.062072e+01	0.0	3.717869e+01	-6.636535e+01	0.0	2.781175e+01	-7.469831e+01	0.0	3.944160e+01	-7.918092e+01	0.0	6.557833e+00	4.708083e+01	0.0	-4.356946e+00	4.442862e+01	0.0	3.079727e+00	3.839641e+01	0.0	9.227465e+00	7.899749e+01	0.0	1.927969e+01	7.427877e+01	0.0	1.678546e+01	8.294079e+01	0.0	1.494775e+01	3.712050e+01	0.0	2.457799e+01	4.584596e+01	0.0	1.719349e+01	5.086921e+01	0.0	4.090898e+00	-1.863063e+00	0.0	4.782171e+00	-4.573323e-01	0.0	3.595919e+00	-9.423183e-01	0.0	1.740940e+00	-1.375573e+00	0.0	1.993753e+00	-8.081432e-01	0.0	1.478219e+00	-9.763344e-01	0.0	1.108245e+00	1.562225e+00	0.0	1.510294e+00	1.072623e+00	0.0	1.623606e+00	1.664583e+00	0.0	1.104551e+00	4.752337e-01	0.0	9.828271e-01	3.745453e-01	0.0	1.069565e+00	3.080704e-01	0.0	1.104810e+00	-2.328132e-02	0.0	1.097285e+00	7.591039e-03	0.0	1.068645e+00	-8.289168e-03	0.0	1.045405e+00	2.952428e-02	0.0	1.070894e+00	2.046715e-02	0.0	1.063585e+00	4.931472e-02	0.0	1.021077e+00	1.773478e-04	0.0	1.017957e+00	8.530480e-03	0.0	1.013299e+00	2.613993e-03	0.0	9.666598e-01	1.783766e-01	0.0	9.562553e-01	2.630982e-01	0.0	9.054883e-01	1.877057e-01	0.0	9.977645e-01	5.032256e-03	0.0	1.002077e+00	2.795581e-03	0.0	9.826262e-01	8.037266e-03	0.0	9.779267e-01	8.214778e-03	0.0	9.744981e-01	1.109568e-02	0.0
[...]
POINT_DATA 1844

SCALARS Density double 1
LOOKUP_TABLE default
1.291738e+00	1.291779e+00	1.292077e+00	1.292175e+00	1.292098e+00	1.292041e+00	1.292002e+00	1.291944e+00	1.291881e+00	1.291819e+00	1.291768e+00	1.291744e+00	1.291750e+00	1.291802e+00	1.291889e+00	1.291975e+00	1.292056e+00	1.292118e+00	1.292166e+00	1.292203e+00	1.292229e+00	1.292249e+00	1.292263e+00	1.292277e+00	1.292287e+00	1.292297e+00	1.292309e+00	1.292322e+00	1.292338e+00	1.292359e+00	1.292386e+00	1.292421e+00	1.292468e+00	1.292525e+00	1.292593e+00	1.292671e+00	1.292754e+00	1.292816e+00	1.292830e+00	1.292806e+00	1.292753e+00	1.292683e+00	1.292612e+00	1.292537e+00	1.292467e+00	1.292429e+00	1.292433e+00	1.292324e+00	1.292023e+00	1.492887e+00	1.109731e+00	1.113525e+00	1.037744e+00	1.019038e+00	1.003799e+00	1.017799e+00	1.013634e+00	1.000975e+00	9.687706e-01	9.203163e-01	8.557445e-01	8.013201e-01	7.865657e-01	9.010930e-01	1.140307e+00	1.219475e+00	1.251123e+00	1.251038e+00	1.241562e+00	1.206573e+00	1.169876e+00	1.128424e+00	1.058426e+00	9.972958e-01	9.484225e-01	8.562599e-01	7.922446e-01	7.288858e-01	6.529726e-01	6.276358e-01	6.080829e-01	5.914609e-01	6.099650e-01	6.375972e-01	6.637970e-01	7.372949e-01	9.591613e-01	1.138873e+00	1.178924e+00	1.153588e+00	1.127006e+00	1.104527e+00	1.065734e+00	1.028953e+00	1.004022e+00	9.576779e-01	9.225594e-01	9.044157e-01	8.778561e-01	8.644886e-01	8.442858e-01	8.276447e-01	8.186514e-01	8.050942e-01	7.985279e-01	7.723981e-01	7.454996e-01	7.218555e-01	7.245612e-01	8.427684e-01	1.042366e+00	1.118236e+00	1.144799e+00	1.161278e+00	1.196668e+00	1.230433e+00	1.252630e+00	1.274789e+00	1.298169e+00	1.304484e+00	1.318879e+00	1.319873e+00	1.304489e+00	1.297965e+00	1.276821e+00	1.254505e+00	1.235915e+00	1.207757e+00	1.198998e+00	1.196840e+00	1.194152e+00	1.206959e+00	1.210085e+00	1.220540e+00	1.232329e+00	1.239524e+00	1.250450e+00	1.257899e+00	1.265069e+00	1.271714e+00	1.278219e+00	1.285277e+00	1.291953e+00	1.298968e+00	1.307813e+00	1.314428e+00	1.330127e+00	1.352384e+00	1.320923e+00	1.408703e+00	1.391356e+00	1.395105e+00	1.394716e+00	1.396659e+00	1.397732e+00	1.398424e+00	1.400237e+00	1.400485e+00	1.401340e+00	1.402533e+00	1.401296e+00	1.402656e+00	1.401511e+00	1.402446e+00	1.402769e+00	1.402197e+00	1.403911e+00	1.404008e+00	1.408076e+00	1.409177e+00	1.414390e+00	1.416998e+00	1.417636e+00	1.419870e+00	1.412024e+00	1.410757e+00	1.398284e+00	1.378660e+00	1.362139e+00	1.334953e+00	1.300083e+00	1.272415e+00	1.232015e+00	1.188276e+00	1.163462e+00	1.104249e+00	1.094530e+00	1.120040e+00	1.124924e+00	1.153692e+00	1.178672e+00	1.198927e+00	1.224764e+00	1.241750e+00	1.248809e+00	1.256995e+00	1.258231e+00	1.253329e+00	1.251476e+00	1.246724e+00	1.239917e+00	1.237553e+00	1.237087e+00	1.236503e+00	1.240647e+00	1.247259e+00	1.250401e+00	1.256402e+00	1.259752e+00	1.254492e+00	1.256277e+00	1.245353e+00	1.226029e+00	1.218032e+00	1.113301e+00	8.599205e-01	7.611236e-01	7.574885e-01	7.947966e-01	8.785279e-01	9.056543e-01	9.954062e-01	1.103193e+00	1.138844e+00	1.201253e+00	1.255034e+00	1.289473e+00	1.327974e+00	1.359976e+00	1.380906e+00	1.396331e+00	1.411521e+00	1.421855e+00	1.431846e+00	1.441577e+00	1.448494e+00	1.457926e+00	1.466501e+00	1.478604e+00	1.489885e+00	1.504937e+00	1.526028e+00	1.546534e+00	1.573105e+00	1.605793e+00	1.608726e+00	1.698767e+00	1.080550e+00	1.013613e+00	1.030768e+00	1.292118e+00	1.292113e+00	1.292083e+00	1.292139e+00	1.292270e+00	1.292202e+00	1.291953e+00	1.291941e+00	1.291987e+00	1.291798e+00	1.292081e+00	1.292447e+00	1.292429e+00	1.292391e+00	1.292334e+00	1.292058e+00	1.291946e+00	1.291973e+00	1.292708e+00	1.292677e+00	1.292626e+00	1.291995e+00	1.292030e+00	1.291939e+00	1.292680e+00	1.292623e+00	1.292597e+00	1.292468e+00	1.291867e+00	1.291679e+00	1.291688e+00	1.291770e+00	1.291761e+00	1.291809e+00	1.292764e+00	1.292833e+00	1.292753e+00	1.291227e+00	1.291192e+00	1.290905e+00	1.291637e+00	1.291643e+00	1.291678e+00	1.291206e+00	1.291581e+00	1.291432e+00	1.296813e+00	1.291040e+00	1.295456e+00	1.304468e+00	1.305084e+00	1.309319e+00	1.260858e+00	1.281835e+00	1.277551e+00	1.286004e+00	1.280089e+00	1.293684e+00	1.324184e+00	1.306004e+00	1.328917e+00	1.314445e+00	1.307083e+00	1.312637e+00	1.327715e+00	1.322431e+00	1.331267e+00	1.286295e+00	1.282111e+00	1.271482e+00	1.365901e+00	1.332443e+00	1.312262e+00	1.305629e+00	1.300995e+00	1.299311e+00	1.296404e+00	1.301368e+00	1.277736e+00	1.283163e+00	1.284779e+00	1.277429e+00	1.412281e+00	1.411780e+00	1.062117e+00	1.089892e+00	1.107477e+00	1.107055e+00	1.223580e+00	1.229701e+00	1.231904e+00	1.250596e+00	1.246509e+00	1.251746e+00	1.247754e+00	1.244031e+00	1.234202e+00	1.217011e+00	1.229948e+00	1.212374e+00	1.144938e+00	1.207525e+00	1.250700e+00	1.247769e+00	1.252692e+00	1.109087e+00	1.208813e+00	8.184299e-01	1.403110e+00	1.402811e+00	1.503849e+00	1.492681e+00	1.367853e+00	1.374535e+00	1.382153e+00	1.333999e+00	1.352195e+00	1.315032e+00	1.213301e+00	1.231715e+00	1.250413e+00	1.261068e+00	1.355139e+00	1.330968e+00	1.348103e+00	1.338994e+00	1.354750e+00	1.343803e+00	1.109968e+00	1.127665e+00	1.140326e+00	1.164954e+00	1.045891e+00	9.921028e-01	1.023494e+00	1.185871e+00	1.205816e+00	8.281720e-01	7.362593e-01	7.274276e-01	1.084906e+00	1.177291e+00	1.141338e+00	1.207598e+00	1.232828e+00	1.226352e+00	6.556611e-01	6.694209e-01	8.205541e-01	7.959886e-01	9.234966e-01	1.242554e+00	1.241170e+00	1.256737e+00	1.259185e+00	1.256457e+00	1.242257e+00	1.244656e+00	1.400508e+00	1.401750e+00	1.400606e+00	1.256147e+00	1.255290e+00	1.252361e+00	1.254427e+00	1.400376e+00	1.399718e+00	1.216206e+00	1.227198e+00	1.234664e+00	1.225311e+00	1.220906e+00	1.227910e+00	1.232556e+00	1.209382e+00	1.206598e+00	1.221181e+00	1.214252e+00	1.263181e+00	1.274057e+00	1.269480e+00	1.297691e+00	1.287262e+00	1.288765e+00	1.275224e+00	1.287895e+00	1.264232e+00	1.260717e+00	1.229469e+00	1.277984e+00	1.290544e+00	1.290838e+00	1.309114e+00	1.303973e+00	1.297957e+00	1.228521e+00	6.129073e-01	1.240049e+00	1.242575e+00	1.246979e+00	1.260418e+00	1.249214e+00	1.309045e+00	1.521656e+00	1.528970e+00	1.549521e+00	1.519800e+00	1.271211e+00	1.272372e+00	1.281127e+00	1.255003e+00	1.261271e+00	1.281266e+00	1.279558e+00	1.290357e+00	1.282647e+00	1.271802e+00	1.254805e+00	1.253934e+00	1.240149e+00	1.270456e+00	1.274683e+00	1.270121e+00	1.281625e+00	1.277507e+00	1.279810e+00	1.263619e+00	1.178793e+00	1.147374e+00	1.170498e+00	1.151701e+00	1.157741e+00	1.291565e+00	1.291360e+00	1.291474e+00	1.133119e+00	1.077536e+00	1.067448e+00	1.180393e+00	1.169020e+00	1.260154e+00	1.196885e+00	1.256360e+00	7.952680e-01	8.331112e-01	8.835162e-01	7.735003e-01	7.497674e-01	7.556389e-01	8.284386e-01	8.535969e-01	8.447525e-01	7.989242e-01	7.717770e-01	7.881225e-01	8.192743e-01	8.095005e-01	8.203079e-01	1.048123e+00	9.853084e-01	1.015990e+00	1.291880e+00	1.291771e+00	1.481086e+00	1.451164e+00	1.479637e+00	1.455159e+00	1.446862e+00	1.430816e+00	1.605707e+00	1.589358e+00	1.580350e+00	1.476324e+00	1.485122e+00	1.488042e+00	1.333835e+00	1.328702e+00	1.306467e+00	1.321116e+00	1.330993e+00	1.321734e+00	1.401814e+00	1.398793e+00	1.405656e+00	1.368551e+00	1.364706e+00	1.381169e+00	1.187871e+00	1.175522e+00	1.230649e+00	1.231837e+00	1.159239e+00	1.256926e+00	1.256359e+00	8.243978e-01	7.716248e-01	1.254719e+00	1.249569e+00	1.145470e+00	1.064405e+00	1.102520e+00	1.257673e+00	1.258225e+00	1.256799e+00	9.792328e-01	9.260887e-01	9.371454e-01	1.257477e+00	1.254599e+00	1.254728e+00	1.250281e+00	1.251247e+00	1.402228e+00	1.147343e+00	1.251352e+00	1.412496e+00	1.413274e+00	1.408617e+00	1.409605e+00	1.399969e+00	1.402992e+00	1.403856e+00	1.407416e+00	1.407445e+00	1.405879e+00	1.406124e+00	1.404452e+00	1.254993e+00	1.256780e+00	1.398893e+00	1.401595e+00	1.400719e+00	1.401343e+00	1.400705e+00	1.401809e+00	1.403333e+00	1.134510e+00	1.153729e+00	1.295356e+00	1.270462e+00	1.258075e+00	1.196659e+00	1.213113e+00	1.198512e+00	1.176565e+00	1.176587e+00	1.157314e+00	1.233529e+00	1.255357e+00	1.252547e+00	1.256726e+00	1.254684e+00	1.248349e+00	1.292858e+00	1.292804e+00	1.258138e+00	1.087734e+00	1.177939e+00	1.315573e+00	1.308250e+00	1.306915e+00	1.301599e+00	1.304175e+00	1.301075e+00	1.292772e+00	1.292860e+00	1.292911e+00	1.365697e+00	1.341001e+00	1.371871e+00	1.421372e+00	1.410292e+00	1.419002e+00	1.428356e+00	1.292697e+00	1.292591e+00	1.292641e+00	1.378683e+00	1.358549e+00	1.370827e+00	1.394763e+00	1.394238e+00	1.376061e+00	1.400886e+00	1.292950e+00	1.292872e+00	1.292929e+00	1.445776e+00	1.438470e+00	1.435226e+00	1.510329e+00	1.561835e+00	1.460604e+00	1.312669e+00	1.311832e+00	1.292699e+00	1.300818e+00	1.301299e+00	1.305824e+00	1.293136e+00	1.293495e+00	1.293170e+00	1.305303e+00	1.299914e+00	1.292654e+00	1.292522e+00	1.292537e+00	1.297394e+00	1.299677e+00	1.298254e+00	1.297785e+00	1.296964e+00	1.295216e+00	1.292525e+00	1.293505e+00	1.294035e+00	1.292373e+00	1.292282e+00	1.292367e+00	1.292441e+00	1.292456e+00	1.292375e+00	1.292396e+00	1.292352e+00	1.292343e+00	1.292328e+00	1.292301e+00	1.292280e+00	1.292238e+00	1.292264e+00	1.292251e+00	1.292210e+00	1.292184e+00	1.292224e+00	9.231910e-01	9.821449e-01	9.617566e-01	1.268078e+00	1.265557e+00	1.196417e+00	1.291705e+00	1.292097e+00	1.291554e+00	1.292080e+00	1.291936e+00	1.292009e+00	1.292155e+00	1.084099e+00	9.937517e-01	1.042977e+00	1.157198e+00	1.144888e+00	1.107742e+00	1.292039e+00	1.203222e+00	1.221476e+00	1.254961e+00	1.281790e+00	1.289405e+00	1.282457e+00	1.287111e+00	1.287829e+00	1.291950e+00	1.109267e+00	1.175117e+00	1.241763e+00	6.138920e-01	6.344677e-01	6.510158e-01	6.136635e-01	1.291896e+00	1.291809e+00	6.422874e-01	6.088361e-01	9.189355e-01	8.879499e-01	8.729828e-01	1.103114e+00	8.349738e-01	8.552324e-01	8.442503e-01	6.314008e-01	9.690537e-01	9.836205e-01	9.453596e-01	1.158717e+00	1.076031e+00	9.190618e-01	1.164480e+00	9.494084e-01	9.270568e-01	1.121791e+00	1.028887e+00	1.037038e+00	9.587619e-01	1.134575e+00	1.091860e+00	1.030403e+00	1.004473e+00	1.292279e+00	1.292295e+00	1.292307e+00	1.231271e+00	1.242026e+00	1.292014e+00	1.292096e+00	1.292046e+00	1.292892e+00	1.292905e+00	1.293533e+00	1.292470e+00	1.395691e+00	1.397151e+00	1.396608e+00	1.293539e+00	1.293911e+00	1.294710e+00	1.292373e+00	1.292747e+00	1.292724e+00	1.292594e+00	1.292130e+00	1.292191e+00	1.292759e+00	1.292820e+00	1.292826e+00	1.293571e+00	1.291723e+00	1.291697e+00	1.291904e+00	1.291829e+00	1.292025e+00	1.291955e+00	1.292465e+00	1.292518e+00	1.292496e+00	1.291894e+00	1.291858e+00	1.292139e+00	1.292999e+00	1.292051e+00	1.292158e+00	1.292165e+00	1.150385e+00	1.089669e+00	1.125471e+00	1.292164e+00	1.292215e+00	1.296111e+00	1.295523e+00	1.294362e+00	1.291726e+00	1.291917e+00	1.289726e+00	1.292926e+00	1.292676e+00	1.292732e+00	1.292925e+00	1.292719e+00	1.292796e+00	1.292312e+00	1.292322e+00	1.292336e+00	1.292239e+00	1.292203e+00	1.292123e+00	1.291696e+00	1.291689e+00	1.292903e+00	1.292995e+00	1.293131e+00	1.293033e+00	1.292064e+00	1.292019e+00	1.291955e+00	1.291871e+00	1.291742e+00	1.291943e+00	1.291921e+00	1.292063e+00	1.292257e+00	1.292762e+00	1.292603e+00	1.292862e+00	1.292389e+00	1.292473e+00	1.292435e+00	1.292402e+00	1.291857e+00	1.291716e+00	1.291801e+00	1.292288e+00	1.292471e+00	1.292899e+00	1.293272e+00	8.509680e-01	8.213095e-01	1.055195e+00	1.292968e+00	1.291621e+00	1.292939e+00	1.293013e+00	1.291112e+00	1.291493e+00	1.291946e+00	1.291818e+00	1.292303e+00	1.292277e+00	1.292507e+00	1.291578e+00	1.291661e+00	1.292691e+00	1.292353e+00	1.292266e+00	1.292070e+00	1.292582e+00	1.292128e+00	1.291555e+00	1.289858e+00	1.291146e+00	1.296033e+00	1.294939e+00	1.296356e+00	1.292136e+00	1.292320e+00	1.291916e+00	1.291700e+00	1.292255e+00	1.292033e+00	1.292358e+00	1.292429e+00	1.292080e+00	1.291987e+00	1.292955e+00	1.293053e+00	1.291548e+00	1.291427e+00	1.291733e+00	1.292789e+00	1.292821e+00	1.291712e+00	1.291977e+00	1.291927e+00	1.292832e+00	1.292025e+00	1.292591e+00	1.292457e+00	1.292455e+00	1.292496e+00	1.292571e+00	1.293187e+00	1.291801e+00	1.291573e+00	1.291982e+00	1.291965e+00	1.292954e+00	1.291806e+00	1.293296e+00	1.292489e+00	1.292682e+00	1.292554e+00	1.290947e+00	1.290266e+00	1.293185e+00	1.294059e+00	1.270998e+00	1.249683e+00	1.299016e+00	1.292598e+00	1.292522e+00	1.290548e+00	1.289027e+00	1.234767e+00	1.291845e+00	1.291511e+00	1.293019e+00	1.291762e+00	1.291592e+00	1.292001e+00	1.292956e+00	1.291882e+00	1.291825e+00	1.292346e+00	1.292057e+00	1.288242e+00	1.285908e+00	1.286632e+00	1.292452e+00	1.292611e+00	1.291947e+00	1.292560e+00	1.291881e+00	1.292172e+00	1.280061e+00	1.292415e+00	1.294225e+00	1.293550e+00	1.293092e+00	1.292493e+00	1.294225e+00	1.295970e+00	1.289850e+00	1.291493e+00	1.290728e+00	1.291374e+00	1.291481e+00	1.289879e+00	1.292880e+00	1.297338e+00	1.290797e+00	1.322441e+00	1.338295e+00	1.294540e+00	1.288643e+00	1.289829e+00	1.288033e+00	1.294970e+00	1.291184e+00	1.298408e+00	1.296584e+00	1.296020e+00	1.291004e+00	1.291305e+00	1.293339e+00	1.290945e+00	1.288099e+00	1.291631e+00	1.293099e+00	1.292786e+00	1.294207e+00	1.298447e+00	1.095881e+00	1.130339e+00	1.060170e+00	1.293595e+00	1.291107e+00	1.289719e+00	1.290693e+00	1.294495e+00	1.294490e+00	1.287334e+00	1.301651e+00	1.292765e+00	1.292606e+00	1.290374e+00	1.294255e+00	1.381342e+00	1.379390e+00	1.372353e+00	1.297943e+00	1.280046e+00	7.568570e-01	6.820532e-01	1.285232e+00	1.290104e+00	1.299418e+00	1.295588e+00	1.289412e+00	1.267572e+00	1.325127e+00	1.307650e+00	1.282640e+00	1.200176e+00	1.216146e+00	1.227196e+00	1.290103e+00	1.284399e+00	1.282354e+00	1.295650e+00	1.298964e+00	1.294162e+00	1.286561e+00	1.288350e+00	1.302317e+00	1.382748e+00	1.389029e+00	1.291410e+00	1.291953e+00	1.290102e+00	1.294588e+00	1.288618e+00	1.303797e+00	1.306451e+00	1.305306e+00	8.266741e-01	1.292164e+00	1.057513e+00	1.298410e+00	1.301729e+00	1.274697e+00	1.305160e+00	1.287936e+00	1.309661e+00	1.295033e+00	1.351613e+00	1.231147e+00	1.270204e+00	1.268634e+00	1.248529e+00	1.293564e+00	1.301576e+00	1.293921e+00	1.288527e+00	1.306962e+00	1.317209e+00	1.307653e+00	1.298471e+00	1.311306e+00	1.304271e+00	1.277433e+00	1.221897e+00	1.199505e+00	1.297411e+00	1.296764e+00	1.397926e+00	1.295717e+00	1.291651e+00	1.243688e+00	1.284050e+00	1.297815e+00	1.287763e+00	1.318617e+00	1.312395e+00	1.225907e+00	1.236068e+00	7.744518e-01	7.299521e-01	1.321079e+00	1.304702e+00	1.310177e+00	1.302050e+00	1.308859e+00	1.330643e+00	1.322708e+00	1.449087e+00	1.412725e+00	1.430683e+00	1.223613e+00	1.181759e+00	1.200449e+00	1.257638e+00	1.282519e+00	1.315148e+00	1.324632e+00	1.262716e+00	1.286731e+00	1.318671e+00	1.304122e+00	1.138549e+00	1.297003e+00	1.311886e+00	1.302187e+00	1.307509e+00	1.307392e+00	1.303475e+00	1.297492e+00	1.282324e+00	1.086219e+00	1.295971e+00	1.284429e+00	1.459364e+00	1.309626e+00	1.294008e+00	1.129358e+00	1.099476e+00	1.270887e+00	1.256797e+00	1.305013e+00	1.060063e+00	8.773318e-01	1.312546e+00	1.301693e+00	1.309410e+00	1.335240e+00	1.321735e+00	1.390819e+00	1.388503e+00	1.385369e+00	1.324242e+00	1.347921e+00	1.319129e+00	1.160752e+00	1.291028e+00	1.315165e+00	1.306855e+00	1.289694e+00	1.281708e+00	1.274787e+00	1.260056e+00	1.300615e+00	1.303272e+00	1.327178e+00	1.126268e+00	6.996541e-01	7.382977e-01	7.806844e-01	1.325635e+00	1.288337e+00	1.337391e+00	1.360364e+00	1.339770e+00	1.498189e+00	1.463198e+00	1.229885e+00	1.212835e+00	1.248598e+00	1.300376e+00	1.284243e+00	1.288653e+00	1.324937e+00	1.267632e+00	1.267429e+00	1.273867e+00	1.209053e+00	1.207404e+00	1.138526e+00	1.295654e+00	1.296209e+00	1.263353e+00	1.239413e+00	1.336825e+00	1.334056e+00	1.357565e+00	1.323323e+00	1.341715e+00	1.304593e+00	1.297345e+00	8.972479e-01	8.096218e-01	1.182179e+00	1.216800e+00	1.348448e+00	1.282223e+00	1.391185e+00	1.396953e+00	1.391633e+00	1.329100e+00	1.339795e+00	1.322004e+00	1.338715e+00	1.291144e+00	1.246860e+00	1.261383e+00	1.203539e+00	1.083266e+00	1.188768e+00	1.218633e+00	1.301733e+00	1.219880e+00	1.232286e+00	1.340608e+00	1.296745e+00	1.299757e+00	1.296952e+00	1.359905e+00	1.349684e+00	1.048914e+00	1.343935e+00	1.361013e+00	1.357081e+00	1.390936e+00	1.418041e+00	1.392929e+00	1.260937e+00	1.262730e+00	1.390801e+00	1.385194e+00	1.386608e+00	1.371355e+00	1.389023e+00	1.383306e+00	1.371198e+00	1.121841e+00	1.028768e+00	9.466695e-01	9.256113e-01	9.874350e-01	1.324007e+00	1.268422e+00	1.066022e+00	1.069280e+00	9.018717e-01	9.114235e-01	1.334303e+00	1.246522e+00	1.274040e+00	1.334144e+00	1.348320e+00	1.383337e+00	1.379537e+00	1.400909e+00	1.062839e+00	1.066445e+00	1.067290e+00	1.260831e+00	1.351736e+00	1.266374e+00	1.263125e+00	1.257881e+00	1.253970e+00	1.243661e+00	1.095756e+00	9.628348e-01	1.076955e+00	1.405489e+00	1.330869e+00	1.378413e+00	1.365714e+00	1.254762e+00	1.260289e+00	1.189757e+00	1.261320e+00	1.313167e+00	1.333772e+00	1.343642e+00	1.299555e+00	1.304926e+00	1.326522e+00	1.315020e+00	1.309831e+00	1.310175e+00	1.155800e+00	1.164340e+00	1.206315e+00	1.205771e+00	1.106177e+00	1.038226e+00	1.266998e+00	1.378115e+00	1.357430e+00	1.368167e+00	1.350479e+00	1.350378e+00	1.351852e+00	1.363639e+00	1.411688e+00	1.387158e+00	1.377051e+00	1.314738e+00	1.143419e+00	1.096805e+00	1.380572e+00	1.364015e+00	1.368945e+00	1.264930e+00	1.264958e+00	9.960665e-01	9.882567e-01	9.303851e-01	1.115138e+00	1.256157e+00	1.227595e+00	1.283639e+00	1.295796e+00	1.287615e+00	1.244774e+00	1.252506e+00	1.308083e+00	1.307107e+00	1.216787e+00	1.197421e+00	1.310360e+00	1.299477e+00	1.258197e+00	1.301943e+00	1.570091e+00	1.567783e+00	9.320681e-01	1.102098e+00	1.117440e+00	1.119704e+00	1.109376e+00	1.384482e+00	8.002021e-01	7.093148e-01	1.124071e+00	1.152038e+00	1.154313e+00	1.156288e+00	1.190850e+00	1.364205e+00	8.843672e-01	9.287309e-01	1.259566e+00	1.258472e+00	1.259982e+00	1.345451e+00	1.362835e+00	1.399569e+00	1.399580e+00	1.400598e+00	1.235365e+00	1.187886e+00	1.358292e+00	1.332525e+00	1.257326e+00	1.250054e+00	1.257313e+00	1.256060e+00	8.719864e-01	9.153352e-01	8.094168e-01	1.239367e+00	1.355218e+00	1.393621e+00	1.310084e+00	1.085724e+00	1.059401e+00	9.734711e-01	9.952411e-01	1.399074e+00	1.379181e+00	9.567773e-01	9.463295e-01	8.603010e-01	1.063894e+00	1.103525e+00	1.143623e+00	1.445695e+00	1.473342e+00	1.256991e+00	1.257913e+00	1.257439e+00	1.522061e+00	1.485075e+00	1.300584e+00	1.290727e+00	1.282850e+00	1.304800e+00	6.300862e-01	1.414647e+00	1.321472e+00	1.320655e+00	1.323145e+00	1.386958e+00	1.386343e+00	1.373716e+00	1.241750e+00	1.234298e+00	1.242386e+00	1.132230e+00	1.002076e+00	9.745673e-01	9.176478e-01	1.155779e+00	1.086740e+00	1.391202e+00	1.374347e+00	1.379804e+00	8.634850e-01	1.136516e+00	1.120584e+00	1.045728e+00	1.256784e+00	1.258246e+00	1.407416e+00	1.435002e+00	1.413627e+00	1.401623e+00	1.222725e+00	1.209322e+00	1.230325e+00	1.049632e+00	1.303214e+00	1.261348e+00	1.302138e+00	1.274845e+00	1.248600e+00	1.255003e+00	1.248904e+00	1.497641e+00	1.472310e+00	1.616331e+00	1.661839e+00	1.620545e+00	9.818747e-01	8.765887e-01	8.829504e-01	8.624131e-01	1.020058e+00	1.041320e+00	1.126606e+00	1.123209e+00	1.115814e+00	8.473412e-01	1.248239e+00	1.441152e+00	8.089202e-01	9.550900e-01	9.297213e-01	8.741268e-01	6.433444e-01	1.395980e+00	1.394643e+00	1.258012e+00	1.256993e+00	1.216680e+00	1.238694e+00	1.155257e+00	1.123573e+00	1.127339e+00	1.256106e+00	1.253640e+00	1.245285e+00	1.264566e+00	1.277012e+00	1.296658e+00	1.289143e+00	1.301528e+00	1.104906e+00	1.491361e+00	1.456634e+00	1.468682e+00	1.393474e+00	1.309490e+00	8.112776e-01	8.054922e-01	1.043538e+00	1.007178e+00	1.469322e+00	1.468644e+00	1.477786e+00	1.335196e+00	1.308513e+00	1.315119e+00	1.315916e+00	1.356913e+00	1.337802e+00	1.358963e+00	1.236544e+00	1.244667e+00	1.391482e+00	1.378688e+00	1.395623e+00	1.255589e+00	1.353701e+00	1.357187e+00	1.198189e+00	1.172778e+00	1.175640e+00	1.341630e+00	1.264690e+00	1.265022e+00	1.252229e+00	1.252590e+00	1.028260e+00	1.008569e+00	1.041407e+00	9.933614e-01	1.183998e+00	8.534163e-01	1.008315e+00	9.801033e-01	1.164510e+00	9.361571e-01	8.941336e-01	9.026011e-01	8.459460e-01	1.434052e+00	1.307185e+00	1.311141e+00	1.393583e+00	1.259322e+00	1.253382e+00	1.251069e+00	1.204996e+00	1.214251e+00	9.561176e-01	9.102455e-01	8.824209e-01	1.309978e+00	1.291494e+00	1.145249e+00	1.232954e+00	1.244107e+00	1.365676e+00	1.243451e+00	1.394685e+00	1.317987e+00	1.395780e+00	1.398274e+00	1.049290e+00	1.190167e+00	1.187541