# vtk DataFile Version 3.0
vtk output
ASCII
DATASET UNSTRUCTURED_GRID
POINTS 198 double
0.000000e+00	0.000000e+00	0.0	3.279363e-03	3.774358e-03	0.0	6.788404e-03	7.566708e-03	0.0	1.128564e-02	1.051608e-02	0.0	1.602007e-02	1.344146e-02	0.0	2.126671e-02	1.585638e-02	0.0	2.673048e-02	1.828633e-02	0.0	3.251019e-02	2.050903e-02	0.0	3.851446e-02	2.274300e-02	0.0	4.479901e-02	2.484612e-02	0.0	5.134283e-02	2.686318e-02	0.0	5.818560e-02	2.867564e-02	0.0	6.533388e-02	3.017423e-02	0.0	7.276869e-02	3.146249e-02	0.0	8.051469e-02	3.221368e-02	0.0	8.850629e-02	3.295138e-02	0.0	9.673866e-02	3.373709e-02	0.0	1.051648e-01	3.493217e-02	0.0	1.138021e-01	3.642098e-02	0.0	1.225635e-01	3.850549e-02	0.0	1.315083e-01	4.092224e-02	0.0	1.406752e-01	4.347837e-02	0.0	1.500549e-01	4.620767e-02	0.0	1.596756e-01	4.900714e-02	0.0	1.696775e-01	5.133268e-02	0.0	1.799336e-01	5.366690e-02	0.0	1.905050e-01	5.559619e-02	0.0	2.014582e-01	5.669492e-02	0.0	2.126501e-01	5.781760e-02	0.0	2.241188e-01	5.782336e-02	0.0	2.358296e-01	5.751632e-02	0.0	2.477598e-01	5.707780e-02	0.0	2.598896e-01	5.622896e-02	0.0	2.722312e-01	5.536529e-02	0.0	2.847931e-01	5.479377e-02	0.0	2.975582e-01	5.434787e-02	0.0	3.105087e-01	5.409290e-02	0.0	3.236274e-01	5.480946e-02	0.0	3.369133e-01	5.553514e-02	0.0	3.503107e-01	5.679802e-02	0.0	3.638284e-01	5.835903e-02	0.0	3.774760e-01	5.995489e-02	0.0	3.912277e-01	6.169510e-02	0.0	4.050861e-01	6.344881e-02	0.0	4.190701e-01	6.491971e-02	0.0	4.331540e-01	6.621559e-02	0.0	4.473096e-01	6.743155e-02	0.0	4.615591e-01	6.801203e-02	0.0	4.758458e-01	6.859401e-02	0.0	4.901622e-01	6.879599e-02	0.0	5.044905e-01	6.877650e-02	0.0	5.188101e-01	6.868782e-02	0.0	5.331003e-01	6.820255e-02	0.0	5.473535e-01	6.771854e-02	0.0	5.615419e-01	6.696730e-02	0.0	5.756576e-01	6.608166e-02	0.0	5.896853e-01	6.510818e-02	0.0	6.035798e-01	6.366738e-02	0.0	6.173672e-01	6.223768e-02	0.0	6.309691e-01	6.032476e-02	0.0	6.444039e-01	5.816362e-02	0.0	6.576770e-01	5.593178e-02	0.0	6.706377e-01	5.292142e-02	0.0	6.834352e-01	4.994896e-02	0.0	6.959886e-01	4.673907e-02	0.0	7.082931e-01	4.331172e-02	0.0	7.204084e-01	3.993707e-02	0.0	7.323457e-01	3.668719e-02	0.0	7.440804e-01	3.350118e-02	0.0	7.556641e-01	3.062988e-02	0.0	7.671516e-01	2.833302e-02	0.0	7.784126e-01	2.608144e-02	0.0	7.896003e-01	2.498100e-02	0.0	8.005673e-01	2.402985e-02	0.0	8.113159e-01	2.358758e-02	0.0	8.218335e-01	2.345712e-02	0.0	8.321029e-01	2.336275e-02	0.0	8.421226e-01	2.332041e-02	0.0	8.518885e-01	2.319551e-02	0.0	8.613877e-01	2.261289e-02	0.0	8.706358e-01	2.204568e-02	0.0	8.795959e-01	2.107838e-02	0.0	8.882981e-01	2.003447e-02	0.0	8.967391e-01	1.891451e-02	0.0	9.049073e-01	1.762243e-02	0.0	9.128344e-01	1.636850e-02	0.0	9.205042e-01	1.504093e-02	0.0	9.279353e-01	1.373138e-02	0.0	9.351322e-01	1.244843e-02	0.0	9.420966e-01	1.118141e-02	0.0	9.488368e-01	9.954657e-03	0.0	9.553514e-01	8.738367e-03	0.0	9.616501e-01	7.562375e-03	0.0	9.677330e-01	6.403469e-03	0.0	9.736083e-01	5.280082e-03	0.0	9.792772e-01	4.173984e-03	0.0	9.847468e-01	3.098022e-03	0.0	9.900208e-01	2.044627e-03	0.0	9.951030e-01	1.009731e-03	0.0	1.000000e+00	0.000000e+00	0.0	9.950046e-01	2.149509e-04	0.0	9.898208e-01	4.072440e-04	0.0	9.844428e-01	5.515493e-04	0.0	9.788665e-01	6.534562e-04	0.0	9.730875e-01	7.321308e-04	0.0	9.671008e-01	7.550098e-04	0.0	9.609023e-01	7.553554e-04	0.0	9.544876e-01	6.906206e-04	0.0	9.478522e-01	6.098432e-04	0.0	9.409933e-01	4.322196e-04	0.0	9.339052e-01	2.486593e-04	0.0	9.265875e-01	-4.246189e-05	0.0	9.190339e-01	-3.666178e-04	0.0	9.112426e-01	-7.468227e-04	0.0	9.032123e-01	-1.217310e-03	0.0	8.949364e-01	-1.702188e-03	0.0	8.864193e-01	-2.303925e-03	0.0	8.776533e-01	-2.937421e-03	0.0	8.686400e-01	-3.639107e-03	0.0	8.593798e-01	-4.429960e-03	0.0	8.498680e-01	-5.253942e-03	0.0	8.401216e-01	-6.290294e-03	0.0	8.301233e-01	-7.353438e-03	0.0	8.199216e-01	-8.812270e-03	0.0	8.094840e-01	-1.040145e-02	0.0	7.988704e-01	-1.240546e-02	0.0	7.880729e-01	-1.476521e-02	0.0	7.770813e-01	-1.734437e-02	0.0	7.660046e-01	-2.055539e-02	0.0	7.547038e-01	-2.383136e-02	0.0	7.432440e-01	-2.736835e-02	0.0	7.315927e-01	-3.103728e-02	0.0	7.197183e-01	-3.470853e-02	0.0	7.075498e-01	-3.811627e-02	0.0	6.951901e-01	-4.157754e-02	0.0	6.825117e-01	-4.451387e-02	0.0	6.695484e-01	-4.702606e-02	0.0	6.564188e-01	-4.957049e-02	0.0	6.429465e-01	-5.083846e-02	0.0	6.293266e-01	-5.211055e-02	0.0	6.155479e-01	-5.300876e-02	0.0	6.016205e-01	-5.349321e-02	0.0	5.875843e-01	-5.398144e-02	0.0	5.734473e-01	-5.426797e-02	0.0	5.592290e-01	-5.455351e-02	0.0	5.449483e-01	-5.498903e-02	0.0	5.306196e-01	-5.557141e-02	0.0	5.162538e-01	-5.616331e-02	0.0	5.018783e-01	-5.701361e-02	0.0	4.874952e-01	-5.786435e-02	0.0	4.731217e-01	-5.874802e-02	0.0	4.587724e-01	-5.965695e-02	0.0	4.444599e-01	-6.055242e-02	0.0	4.301924e-01	-6.131963e-02	0.0	4.159917e-01	-6.208324e-02	0.0	4.018686e-01	-6.277064e-02	0.0	3.878384e-01	-6.340692e-02	0.0	3.739177e-01	-6.405419e-02	0.0	3.601242e-01	-6.480454e-02	0.0	3.464653e-01	-6.554758e-02	0.0	3.329697e-01	-6.652691e-02	0.0	3.196415e-01	-6.763132e-02	0.0	3.064883e-01	-6.878325e-02	0.0	2.935519e-01	-7.029697e-02	0.0	2.808036e-01	-7.178866e-02	0.0	2.682423e-01	-7.316533e-02	0.0	2.558805e-01	-7.446371e-02	0.0	2.437262e-01	-7.565336e-02	0.0	2.317379e-01	-7.601470e-02	0.0	2.199772e-01	-7.636917e-02	0.0	2.084875e-01	-7.578234e-02	0.0	1.972625e-01	-7.452995e-02	0.0	1.862897e-01	-7.324222e-02	0.0	1.758177e-01	-7.057378e-02	0.0	1.655867e-01	-6.796674e-02	0.0	1.557084e-01	-6.505633e-02	0.0	1.462068e-01	-6.176715e-02	0.0	1.369448e-01	-5.856085e-02	0.0	1.279866e-01	-5.525967e-02	0.0	1.192832e-01	-5.200003e-02	0.0	1.108092e-01	-4.884960e-02	0.0	1.025252e-01	-4.591377e-02	0.0	9.447719e-02	-4.306158e-02	0.0	8.664188e-02	-4.035425e-02	0.0	7.902186e-02	-3.777704e-02	0.0	7.163199e-02	-3.527869e-02	0.0	6.446600e-02	-3.286820e-02	0.0	5.752450e-02	-3.053322e-02	0.0	5.083376e-02	-2.818662e-02	0.0	4.436824e-02	-2.589036e-02	0.0	3.817038e-02	-2.352164e-02	0.0	3.220383e-02	-2.116514e-02	0.0	2.654580e-02	-1.863675e-02	0.0	2.112770e-02	-1.609410e-02	0.0	1.606250e-02	-1.331063e-02	0.0	1.130278e-02	-1.041353e-02	0.0	6.836093e-03	-7.416053e-03	0.0	2.917201e-03	-4.017238e-03	0.0	
CELLS 198	594
2	101	102	2	102	103	2	103	104	2	104	105	2	105	106	2	106	107	2	107	108	2	108	109	2	109	110	2	110	111	2	111	112	2	112	113	2	113	114	2	114	115	2	115	116	2	116	117	2	117	118	2	118	119	2	119	120	2	120	121	2	121	122	2	122	123	2	123	124	2	124	125	2	125	126	2	126	127	2	127	128	2	128	129	2	129	130	2	130	131	2	131	132	2	132	133	2	133	134	2	134	135	2	135	136	2	136	137	2	137	138	2	138	139	2	139	140	2	140	141	2	141	142	2	142	143	2	143	144	2	144	145	2	145	146	2	146	147	2	147	148	2	148	149	2	149	150	2	150	151	2	151	152	2	152	153	2	153	154	2	154	155	2	155	156	2	156	157	2	157	158	2	158	159	2	159	160	2	160	161	2	161	162	2	162	163	2	163	164	2	164	165	2	165	166	2	166	167	2	167	168	2	168	169	2	169	170	2	170	171	2	171	172	2	172	173	2	173	174	2	174	175	2	45	46	2	46	47	2	47	48	2	48	49	2	49	50	2	50	51	2	51	52	2	52	53	2	53	54	2	54	55	2	55	56	2	56	57	2	57	58	2	58	59	2	59	60	2	60	61	2	61	62	2	62	63	2	63	64	2	64	65	2	65	66	2	66	67	2	67	68	2	68	69	2	69	70	2	70	71	2	71	72	2	72	73	2	73	74	2	74	75	2	75	76	2	76	77	2	77	78	2	78	79	2	79	80	2	80	81	2	81	82	2	82	83	2	83	84	2	84	85	2	85	86	2	86	87	2	87	88	2	88	89	2	89	90	2	90	91	2	91	92	2	92	93	2	93	94	2	94	95	2	95	96	2	96	97	2	97	98	2	98	99	2	99	100	2	100	101	2	0	1	2	1	2	2	2	3	2	3	4	2	4	5	2	5	6	2	6	7	2	7	8	2	8	9	2	9	10	2	10	11	2	11	12	2	12	13	2	13	14	2	14	15	2	15	16	2	16	17	2	17	18	2	18	19	2	19	20	2	20	21	2	21	22	2	22	23	2	23	24	2	24	25	2	25	26	2	26	27	2	27	28	2	28	29	2	29	30	2	30	31	2	31	32	2	32	33	2	33	34	2	34	35	2	35	36	2	36	37	2	37	38	2	38	39	2	39	40	2	40	41	2	41	42	2	42	43	2	43	44	2	44	45	2	175	176	2	176	177	2	177	178	2	178	179	2	179	180	2	180	181	2	181	182	2	182	183	2	183	184	2	184	185	2	185	186	2	186	187	2	187	188	2	188	189	2	189	190	2	190	191	2	191	192	2	192	193	2	193	194	2	194	195	2	195	196	2	196	197	2	197	0	
CELL_TYPES 198
3	3	3	3	3	3	3	3	3	3	3	3	3	3	3	3	3	3	3	3	3	3	3	3	3	3	3	3	3	3	3	3	3	3	3	3	3	3	3	3	3	3	3	3	3	3	3	3	3	3	3	3	3	3	3	3	3	3	3	3	3	3	3	3	3	3	3	3	3	3	3	3	3	3	3	3	3	3	3	3	3	3	3	3	3	3	3	3	3	3	3	3	3	3	3	3	3	3	3	3	3	3	3	3	3	3	3	3	3	3	3	3	3	3	3	3	3	3	3	3	3	3	3	3	3	3	3	3	3	3	3	3	3	3	3	3	3	3	3	3	3	3	3	3	3	3	3	3	3	3	3	3	3	3	3	3	3	3	3	3	3	3	3	3	3	3	3	3	3	3	3	3	3	3	3	3	3	3	3	3	3	3	3	3	3	3	3	3	3	3	3	3	3	3	3	3	3	3	
POINT_DATA 198

SCALARS Density double 1
LOOKUP_TABLE default
1.492887e+00	1.109731e+00	1.113525e+00	1.037744e+00	1.019038e+00	1.003799e+00	1.017799e+00	1.013634e+00	1.000975e+00	9.687706e-01	9.203163e-01	8.557445e-01	8.013201e-01	7.865657e-01	9.010930e-01	1.140307e+00	1.219475e+00	1.251123e+00	1.251038e+00	1.241562e+00	1.206573e+00	1.169876e+00	1.128424e+00	1.058426e+00	9.972958e-01	9.484225e-01	8.562599e-01	7.922446e-01	7.288858e-01	6.529726e-01	6.276358e-01	6.080829e-01	5.914609e-01	6.099650e-01	6.375972e-01	6.637970e-01	7.372949e-01	9.591613e-01	1.138873e+00	1.178924e+00	1.153588e+00	1.127006e+00	1.104527e+00	1.065734e+00	1.028953e+00	1.004022e+00	9.576779e-01	9.225594e-01	9.044157e-01	8.778561e-01	8.644886e-01	8.442858e-01	8.276447e-01	8.186514e-01	8.050942e-01	7.985279e-01	7.723981e-01	7.454996e-01	7.218555e-01	7.245612e-01	8.427684e-01	1.042366e+00	1.118236e+00	1.144799e+00	1.161278e+00	1.196668e+00	1.230433e+00	1.252630e+00	1.274789e+00	1.298169e+00	1.304484e+00	1.318879e+00	1.319873e+00	1.304489e+00	1.297965e+00	1.276821e+00	1.254505e+00	1.235915e+00	1.207757e+00	1.198998e+00	1.196840e+00	1.194152e+00	1.206959e+00	1.210085e+00	1.220540e+00	1.232329e+00	1.239524e+00	1.250450e+00	1.257899e+00	1.265069e+00	1.271714e+00	1.278219e+00	1.285277e+00	1.291953e+00	1.298968e+00	1.307813e+00	1.314428e+00	1.330127e+00	1.352384e+00	1.320923e+00	1.408703e+00	1.391356e+00	1.395105e+00	1.394716e+00	1.396659e+00	1.397732e+00	1.398424e+00	1.400237e+00	1.400485e+00	1.401340e+00	1.402533e+00	1.401296e+00	1.402656e+00	1.401511e+00	1.402446e+00	1.402769e+00	1.402197e+00	1.403911e+00	1.404008e+00	1.408076e+00	1.409177e+00	1.414390e+00	1.416998e+00	1.417636e+00	1.419870e+00	1.412024e+00	1.410757e+00	1.398284e+00	1.378660e+00	1.362139e+00	1.334953e+00	1.300083e+00	1.272415e+00	1.232015e+00	1.188276e+00	1.163462e+00	1.104249e+00	1.094530e+00	1.120040e+00	1.124924e+00	1.153692e+00	1.178672e+00	1.198927e+00	1.224764e+00	1.241750e+00	1.248809e+00	1.256995e+00	1.258231e+00	1.253329e+00	1.251476e+00	1.246724e+00	1.239917e+00	1.237553e+00	1.237087e+00	1.236503e+00	1.240647e+00	1.247259e+00	1.250401e+00	1.256402e+00	1.259752e+00	1.254492e+00	1.256277e+00	1.245353e+00	1.226029e+00	1.218032e+00	1.113301e+00	8.599205e-01	7.611236e-01	7.574885e-01	7.947966e-01	8.785279e-01	9.056543e-01	9.954062e-01	1.103193e+00	1.138844e+00	1.201253e+00	1.255034e+00	1.289473e+00	1.327974e+00	1.359976e+00	1.380906e+00	1.396331e+00	1.411521e+00	1.421855e+00	1.431846e+00	1.441577e+00	1.448494e+00	1.457926e+00	1.466501e+00	1.478604e+00	1.489885e+00	1.504937e+00	1.526028e+00	1.546534e+00	1.573105e+00	1.605793e+00	1.608726e+00	1.698767e+00	
VECTORS Momentum double
1.798090e+01	2.265025e+02	0.0	1.697343e+02	1.856095e+02	0.0	2.088149e+02	1.774712e+02	0.0	2.396650e+02	1.521412e+02	0.0	2.619946e+02	1.393888e+02	0.0	2.714510e+02	1.221942e+02	0.0	2.797193e+02	1.155447e+02	0.0	2.855336e+02	1.079299e+02	0.0	2.902376e+02	1.025582e+02	0.0	2.948603e+02	9.474998e+01	0.0	2.978492e+02	8.515343e+01	0.0	2.988300e+02	7.089103e+01	0.0	2.960151e+02	5.621213e+01	0.0	2.901720e+02	4.130766e+01	0.0	2.818668e+02	2.593957e+01	0.0	2.770680e+02	2.700104e+01	0.0	2.662131e+02	3.193474e+01	0.0	2.638646e+02	4.144808e+01	0.0	2.616842e+02	5.360303e+01	0.0	2.654813e+02	6.757071e+01	0.0	2.717681e+02	7.473224e+01	0.0	2.785018e+02	7.927261e+01	0.0	2.874879e+02	8.426904e+01	0.0	2.950078e+02	7.767505e+01	0.0	2.990294e+02	6.846433e+01	0.0	3.057882e+02	6.361007e+01	0.0	3.003690e+02	4.330582e+01	0.0	2.956364e+02	2.988451e+01	0.0	2.901259e+02	1.530989e+01	0.0	2.734718e+02	-3.124336e+00	0.0	2.686854e+02	-9.154778e+00	0.0	2.641714e+02	-1.452062e+01	0.0	2.590851e+02	-1.871990e+01	0.0	2.649178e+02	-1.623130e+01	0.0	2.724003e+02	-1.059679e+01	0.0	2.788558e+02	-7.949945e+00	0.0	2.889516e+02	2.663664e+00	0.0	2.992020e+02	1.667777e+01	0.0	2.958733e+02	2.247062e+01	0.0	2.959398e+02	3.154605e+01	0.0	2.970513e+02	3.488549e+01	0.0	2.991290e+02	3.644785e+01	0.0	3.026750e+02	3.848964e+01	0.0	3.060880e+02	3.554719e+01	0.0	3.072249e+02	3.014175e+01	0.0	3.107712e+02	2.785912e+01	0.0	3.103825e+02	1.973506e+01	0.0	3.090020e+02	1.252578e+01	0.0	3.096408e+02	8.674942e+00	0.0	3.069832e+02	2.037544e+00	0.0	3.066326e+02	-1.163103e+00	0.0	3.045651e+02	-5.965391e+00	0.0	3.024685e+02	-1.037873e+01	0.0	3.020923e+02	-1.313071e+01	0.0	2.995672e+02	-1.728453e+01	0.0	2.994936e+02	-1.939126e+01	0.0	2.946264e+02	-2.504062e+01	0.0	2.909008e+02	-3.025579e+01	0.0	2.861570e+02	-3.485786e+01	0.0	2.804621e+02	-4.237614e+01	0.0	2.871655e+02	-4.882950e+01	0.0	2.859050e+02	-5.552762e+01	0.0	2.788270e+02	-6.414076e+01	0.0	2.760794e+02	-6.759223e+01	0.0	2.686583e+02	-7.186118e+01	0.0	2.594020e+02	-7.228640e+01	0.0	2.523205e+02	-6.938297e+01	0.0	2.447785e+02	-6.640415e+01	0.0	2.363828e+02	-6.148631e+01	0.0	2.325762e+02	-5.197051e+01	0.0	2.279832e+02	-4.557943e+01	0.0	2.259433e+02	-3.373835e+01	0.0	2.303918e+02	-2.119854e+01	0.0	2.345846e+02	-1.512734e+01	0.0	2.406500e+02	-6.512287e+00	0.0	2.485735e+02	-2.678699e+00	0.0	2.555068e+02	-1.786533e+00	0.0	2.644666e+02	-2.072381e+00	0.0	2.695800e+02	-1.003654e+01	0.0	2.719765e+02	-1.680863e+01	0.0	2.734920e+02	-2.292693e+01	0.0	2.708766e+02	-3.076387e+01	0.0	2.693205e+02	-3.387219e+01	0.0	2.667026e+02	-3.876204e+01	0.0	2.631608e+02	-4.168192e+01	0.0	2.603105e+02	-4.301524e+01	0.0	2.566320e+02	-4.484849e+01	0.0	2.536322e+02	-4.494159e+01	0.0	2.510284e+02	-4.519003e+01	0.0	2.484885e+02	-4.521356e+01	0.0	2.459254e+02	-4.532326e+01	0.0	2.431678e+02	-4.541101e+01	0.0	2.404873e+02	-4.533410e+01	0.0	2.374959e+02	-4.530841e+01	0.0	2.340589e+02	-4.518368e+01	0.0	2.308380e+02	-4.510580e+01	0.0	2.248137e+02	-4.479556e+01	0.0	2.218473e+02	-4.448808e+01	0.0	2.157483e+02	-4.418994e+01	0.0	1.865899e+02	-7.863228e+00	0.0	2.566408e+02	-1.171487e+01	0.0	2.514967e+02	-7.763687e+00	0.0	2.527176e+02	-5.828476e+00	0.0	2.514611e+02	-3.946368e+00	0.0	2.512850e+02	-2.197294e+00	0.0	2.506352e+02	-4.859376e-01	0.0	2.502074e+02	1.276398e+00	0.0	2.496554e+02	2.764978e+00	0.0	2.490377e+02	4.774624e+00	0.0	2.488656e+02	6.435498e+00	0.0	2.485505e+02	8.164551e+00	0.0	2.484359e+02	1.027151e+01	0.0	2.483758e+02	1.139242e+01	0.0	2.480684e+02	1.336073e+01	0.0	2.480801e+02	1.450705e+01	0.0	2.477389e+02	1.603732e+01	0.0	2.476494e+02	1.771251e+01	0.0	2.474090e+02	1.856940e+01	0.0	2.467260e+02	2.017835e+01	0.0	2.457623e+02	2.108809e+01	0.0	2.441262e+02	2.359914e+01	0.0	2.426131e+02	2.576582e+01	0.0	2.403251e+02	3.003771e+01	0.0	2.391540e+02	3.529628e+01	0.0	2.381703e+02	4.058496e+01	0.0	2.379471e+02	4.860767e+01	0.0	2.399923e+02	5.441208e+01	0.0	2.413276e+02	6.342947e+01	0.0	2.470272e+02	7.163992e+01	0.0	2.544419e+02	7.604540e+01	0.0	2.612034e+02	8.142157e+01	0.0	2.707926e+02	8.456222e+01	0.0	2.815093e+02	8.268805e+01	0.0	2.892587e+02	8.098134e+01	0.0	2.983597e+02	7.583648e+01	0.0	3.074275e+02	6.511891e+01	0.0	3.094078e+02	6.074967e+01	0.0	3.182241e+02	4.528523e+01	0.0	3.196890e+02	2.951896e+01	0.0	3.151788e+02	2.495268e+01	0.0	3.156648e+02	1.548609e+01	0.0	3.118982e+02	1.077424e+01	0.0	3.081421e+02	8.493905e+00	0.0	3.048887e+02	6.041622e+00	0.0	3.003854e+02	7.724464e+00	0.0	2.976194e+02	1.064360e+01	0.0	2.967073e+02	1.204860e+01	0.0	2.955448e+02	1.487871e+01	0.0	2.958876e+02	1.754727e+01	0.0	2.970051e+02	1.787431e+01	0.0	2.973216e+02	1.856511e+01	0.0	2.983945e+02	1.884710e+01	0.0	2.996239e+02	1.742262e+01	0.0	2.993848e+02	1.612504e+01	0.0	2.991100e+02	1.537485e+01	0.0	2.987281e+02	1.406805e+01	0.0	2.973579e+02	1.366431e+01	0.0	2.960116e+02	1.495750e+01	0.0	2.951409e+02	1.604719e+01	0.0	2.940888e+02	1.871372e+01	0.0	2.937390e+02	2.294794e+01	0.0	2.952111e+02	2.502369e+01	0.0	2.963335e+02	3.035437e+01	0.0	2.989699e+02	3.508523e+01	0.0	3.038658e+02	3.395463e+01	0.0	3.044528e+02	3.260175e+01	0.0	3.016207e+02	3.283905e+01	0.0	2.985826e+02	1.907980e+01	0.0	3.033382e+02	9.158342e+00	0.0	3.091435e+02	-3.410471e+00	0.0	3.227422e+02	-2.692029e+01	0.0	3.203012e+02	-3.607684e+01	0.0	3.267805e+02	-6.206378e+01	0.0	3.247369e+02	-8.394041e+01	0.0	3.169260e+02	-8.651410e+01	0.0	3.108920e+02	-9.957790e+01	0.0	3.005433e+02	-1.042015e+02	0.0	2.912969e+02	-1.039394e+02	0.0	2.827694e+02	-1.051033e+02	0.0	2.741171e+02	-1.023464e+02	0.0	2.676806e+02	-9.713827e+01	0.0	2.630367e+02	-9.319186e+01	0.0	2.582750e+02	-9.039381e+01	0.0	2.541081e+02	-8.687410e+01	0.0	2.503438e+02	-8.469381e+01	0.0	2.460762e+02	-8.301516e+01	0.0	2.419471e+02	-8.134787e+01	0.0	2.369873e+02	-8.141917e+01	0.0	2.312075e+02	-8.155955e+01	0.0	2.241193e+02	-8.258120e+01	0.0	2.150088e+02	-8.352616e+01	0.0	2.032401e+02	-8.524739e+01	0.0	1.872536e+02	-8.585617e+01	0.0	1.665920e+02	-8.464969e+01	0.0	1.381119e+02	-7.945999e+01	0.0	9.978304e+01	-6.368454e+01	0.0	5.530450e+01	-3.774690e+01	0.0	-3.235110e+01	3.624509e+01	0.0	
SCALARS Energy double 1
LOOKUP_TABLE default
3.286886e+05	2.488007e+05	2.511144e+05	2.361394e+05	2.333357e+05	2.302962e+05	2.335765e+05	2.329494e+05	2.305955e+05	2.242328e+05	2.144767e+05	2.013238e+05	1.899596e+05	1.861775e+05	2.081139e+05	2.569963e+05	2.728778e+05	2.794655e+05	2.794487e+05	2.778809e+05	2.710641e+05	2.639390e+05	2.560731e+05	2.420919e+05	2.297544e+05	2.203695e+05	2.010544e+05	1.877278e+05	1.746100e+05	1.579680e+05	1.525603e+05	1.483138e+05	1.445621e+05	1.487760e+05	1.549202e+05	1.607001e+05	1.760691e+05	2.213791e+05	2.580209e+05	2.663955e+05	2.612458e+05	2.559138e+05	2.515690e+05	2.438439e+05	2.363701e+05	2.315850e+05	2.221114e+05	2.148764e+05	2.112884e+05	2.057089e+05	2.030112e+05	1.987938e+05	1.952935e+05	1.934885e+05	1.905700e+05	1.892833e+05	1.836735e+05	1.780610e+05	1.729879e+05	1.729915e+05	1.971459e+05	2.376734e+05	2.529589e+05	2.583432e+05	2.613498e+05	2.681670e+05	2.747832e+05	2.789823e+05	2.831369e+05	2.877716e+05	2.888107e+05	2.916658e+05	2.920223e+05	2.889438e+05	2.878563e+05	2.838063e+05	2.794872e+05	2.761063e+05	2.705230e+05	2.688626e+05	2.685381e+05	2.678556e+05	2.704628e+05	2.709944e+05	2.729962e+05	2.753134e+05	2.766263e+05	2.787533e+05	2.801771e+05	2.815472e+05	2.828094e+05	2.840344e+05	2.853825e+05	2.866376e+05	2.879446e+05	2.896561e+05	2.907588e+05	2.939507e+05	2.984020e+05	2.902282e+05	3.121855e+05	3.082308e+05	3.090867e+05	3.089374e+05	3.093396e+05	3.095334e+05	3.096586e+05	3.100160e+05	3.100387e+05	3.102134e+05	3.104533e+05	3.101888e+05	3.104772e+05	3.102234e+05	3.104257e+05	3.104818e+05	3.103617e+05	3.107168e+05	3.107094e+05	3.115292e+05	3.116933e+05	3.127377e+05	3.132047e+05	3.133186e+05	3.137868e+05	3.121796e+05	3.120698e+05	3.095938e+05	3.058320e+05	3.027907e+05	2.975094e+05	2.907802e+05	2.856018e+05	2.776380e+05	2.690838e+05	2.644346e+05	2.523307e+05	2.508453e+05	2.560391e+05	2.566459e+05	2.625587e+05	2.674122e+05	2.713226e+05	2.764500e+05	2.796743e+05	2.809633e+05	2.826143e+05	2.828031e+05	2.818118e+05	2.815018e+05	2.805343e+05	2.791887e+05	2.787746e+05	2.786560e+05	2.785125e+05	2.793459e+05	2.806303e+05	2.811991e+05	2.823979e+05	2.830382e+05	2.819355e+05	2.824185e+05	2.802470e+05	2.764358e+05	2.751078e+05	2.534615e+05	2.017756e+05	1.818592e+05	1.816385e+05	1.895399e+05	2.075738e+05	2.127890e+05	2.317427e+05	2.538072e+05	2.605089e+05	2.731782e+05	2.836851e+05	2.902336e+05	2.977751e+05	3.039185e+05	3.078529e+05	3.107763e+05	3.136814e+05	3.155902e+05	3.174795e+05	3.193049e+05	3.205473e+05	3.223194e+05	3.238818e+05	3.261628e+05	3.281990e+05	3.309725e+05	3.349079e+05	3.386078e+05	3.434502e+05	3.494799e+05	3.492676e+05	3.685943e+05	
SCALARS Pressure double 1
LOOKUP_TABLE default
1.245591e+05	8.811920e+04	8.695711e+04	7.892469e+04	7.604926e+04	7.446218e+04	7.543227e+04	7.479477e+04	7.330545e+04	6.989068e+04	6.493583e+04	5.848441e+04	5.332506e+04	5.262767e+04	6.546233e+04	8.920643e+04	9.736093e+04	1.003817e+05	1.003727e+05	9.906339e+04	9.525732e+04	9.124119e+04	8.652200e+04	7.925158e+04	7.302952e+04	6.757623e+04	5.891031e+04	5.280154e+04	4.668332e+04	4.027764e+04	3.799302e+04	3.630318e+04	3.500829e+04	3.641238e+04	3.865738e+04	4.083196e+04	4.777724e+04	6.982695e+04	8.774643e+04	9.153169e+04	8.898908e+04	8.625086e+04	8.377086e+04	7.971819e+04	7.602521e+04	7.324103e+04	6.864429e+04	6.521713e+04	6.329664e+04	6.081244e+04	5.945176e+04	5.753550e+04	5.598352e+04	5.505812e+04	5.386059e+04	5.315368e+04	5.083036e+04	4.827636e+04	4.617093e+04	4.698877e+04	5.872273e+04	7.879389e+04	8.654292e+04	8.922326e+04	9.121990e+04	9.514735e+04	9.878229e+04	1.013224e+05	1.038952e+05	1.063590e+05	1.072369e+05	1.087522e+05	1.086976e+05	1.071054e+05	1.062124e+05	1.038428e+05	1.013865e+05	9.912348e+04	9.615808e+04	9.515907e+04	9.482818e+04	9.469480e+04	9.597576e+04	9.639318e+04	9.756575e+04	9.882777e+04	9.969933e+04	1.008893e+05	1.017270e+05	1.025339e+05	1.032892e+05	1.040391e+05	1.048337e+05	1.056056e+05	1.064286e+05	1.074024e+05	1.083080e+05	1.098825e+05	1.121883e+05	1.108105e+05	1.155036e+05	1.141917e+05	1.144741e+05	1.145053e+05	1.146930e+05	1.148248e+05	1.149097e+05	1.151028e+05	1.151553e+05	1.152402e+05	1.153624e+05	1.152514e+05	1.153761e+05	1.152822e+05	1.153636e+05	1.154056e+05	1.153522e+05	1.155175e+05	1.155543e+05	1.159696e+05	1.161398e+05	1.166780e+05	1.170026e+05	1.170827e+05	1.172925e+05	1.165177e+05	1.162429e+05	1.149320e+05	1.127358e+05	1.107615e+05	1.077889e+05	1.039314e+05	1.007098e+05	9.640788e+04	9.168272e+04	8.879827e+04	8.292480e+04	8.145928e+04	8.401053e+04	8.488642e+04	8.770794e+04	9.043840e+04	9.267757e+04	9.539445e+04	9.732715e+04	9.818127e+04	9.901537e+04	9.920200e+04	9.870489e+04	9.845236e+04	9.797726e+04	9.725603e+04	9.695241e+04	9.692966e+04	9.689581e+04	9.732067e+04	9.804362e+04	9.842868e+04	9.905186e+04	9.942868e+04	9.893446e+04	9.899344e+04	9.784823e+04	9.579263e+04	9.469255e+04	8.454200e+04	5.930049e+04	4.922170e+04	4.833873e+04	5.176421e+04	5.915156e+04	6.217210e+04	7.046748e+04	8.112751e+04	8.524983e+04	9.152821e+04	9.734950e+04	1.012568e+05	1.054042e+05	1.089767e+05	1.113969e+05	1.131566e+05	1.148631e+05	1.160919e+05	1.172359e+05	1.183648e+05	1.192226e+05	1.203139e+05	1.213551e+05	1.227485e+05	1.241374e+05	1.259338e+05	1.284016e+05	1.309274e+05	1.341522e+05	1.380468e+05	1.391496e+05	1.471598e+05	
SCALARS Temperature double 1
LOOKUP_TABLE default
2.906557e+02	2.766196e+02	2.720418e+02	2.649434e+02	2.599770e+02	2.584158e+02	2.581817e+02	2.570517e+02	2.551193e+02	2.513209e+02	2.457976e+02	2.380819e+02	2.318225e+02	2.330824e+02	2.530767e+02	2.725240e+02	2.781262e+02	2.795018e+02	2.794957e+02	2.779554e+02	2.750269e+02	2.716948e+02	2.671065e+02	2.608420e+02	2.550967e+02	2.482118e+02	2.396713e+02	2.321762e+02	2.231170e+02	2.148817e+02	2.108757e+02	2.079755e+02	2.061936e+02	2.079575e+02	2.112109e+02	2.142867e+02	2.257409e+02	2.536073e+02	2.684013e+02	2.704680e+02	2.687301e+02	2.666044e+02	2.642086e+02	2.605787e+02	2.573903e+02	2.541216e+02	2.496981e+02	2.462622e+02	2.438052e+02	2.413234e+02	2.395719e+02	2.373978e+02	2.356387e+02	2.342894e+02	2.330530e+02	2.318855e+02	2.292516e+02	2.255888e+02	2.228172e+02	2.259172e+02	2.427327e+02	2.633315e+02	2.696053e+02	2.715059e+02	2.736426e+02	2.769831e+02	2.796736e+02	2.817817e+02	2.839145e+02	2.854126e+02	2.863756e+02	2.872524e+02	2.868918e+02	2.860233e+02	2.850640e+02	2.833198e+02	2.815388e+02	2.793948e+02	2.773553e+02	2.764789e+02	2.760145e+02	2.762466e+02	2.770126e+02	2.774987e+02	2.784683e+02	2.793718e+02	2.801996e+02	2.810666e+02	2.817222e+02	2.823474e+02	2.829410e+02	2.835448e+02	2.841416e+02	2.847546e+02	2.854237e+02	2.860873e+02	2.870476e+02	2.877832e+02	2.889867e+02	2.922360e+02	2.856318e+02	2.859082e+02	2.858449e+02	2.860026e+02	2.860729e+02	2.861819e+02	2.862519e+02	2.863616e+02	2.864415e+02	2.864777e+02	2.865377e+02	2.865146e+02	2.865464e+02	2.865472e+02	2.865585e+02	2.865966e+02	2.865808e+02	2.866411e+02	2.867127e+02	2.869117e+02	2.871083e+02	2.873758e+02	2.876451e+02	2.877121e+02	2.877745e+02	2.874618e+02	2.870414e+02	2.863360e+02	2.848625e+02	2.832680e+02	2.812796e+02	2.784877e+02	2.757230e+02	2.726006e+02	2.687822e+02	2.658781e+02	2.616060e+02	2.592647e+02	2.612946e+02	2.628727e+02	2.648373e+02	2.672946e+02	2.692850e+02	2.713319e+02	2.730424e+02	2.738817e+02	2.744098e+02	2.746568e+02	2.743494e+02	2.740527e+02	2.737696e+02	2.732464e+02	2.729137e+02	2.729523e+02	2.729859e+02	2.732669e+02	2.738376e+02	2.742223e+02	2.746404e+02	2.749521e+02	2.747325e+02	2.745056e+02	2.737101e+02	2.721834e+02	2.708243e+02	2.645394e+02	2.402317e+02	2.252847e+02	2.223052e+02	2.268840e+02	2.345530e+02	2.391461e+02	2.466146e+02	2.561811e+02	2.607711e+02	2.654304e+02	2.702144e+02	2.735534e+02	2.765023e+02	2.791470e+02	2.810213e+02	2.823071e+02	2.834809e+02	2.844310e+02	2.852296e+02	2.860324e+02	2.867293e+02	2.874821e+02	2.882744e+02	2.891976e+02	2.902553e+02	2.915105e+02	2.931153e+02	2.949182e+02	2.970780e+02	2.994794e+02	3.013216e+02	3.017767e+02	
SCALARS Mach double 1
LOOKUP_TABLE default
4.453198e-01	6.797646e-01	7.443078e-01	8.383299e-01	9.009658e-01	9.202446e-01	9.231210e-01	9.369515e-01	9.604167e-01	1.005937e+00	1.070982e+00	1.160265e+00	1.231895e+00	1.217513e+00	9.849873e-01	7.376765e-01	6.576412e-01	6.369902e-01	6.370826e-01	6.601753e-01	7.026471e-01	7.490578e-01	8.103174e-01	8.902055e-01	9.606900e-01	1.042696e+00	1.141984e+00	1.227859e+00	1.331115e+00	1.425271e+00	1.471385e+00	1.504954e+00	1.525670e+00	1.505164e+00	1.467515e+00	1.432103e+00	1.301213e+00	9.786260e-01	7.933015e-01	7.657096e-01	7.889476e-01	8.168641e-01	8.477372e-01	8.934871e-01	9.328158e-01	9.724469e-01	1.025173e+00	1.065555e+00	1.094183e+00	1.122929e+00	1.143129e+00	1.168118e+00	1.188282e+00	1.203720e+00	1.217848e+00	1.231176e+00	1.261213e+00	1.302946e+00	1.334533e+00	1.299203e+00	1.106625e+00	8.588981e-01	7.772942e-01	7.516354e-01	7.221523e-01	6.744719e-01	6.343780e-01	6.016794e-01	5.672198e-01	5.420375e-01	5.253608e-01	5.098031e-01	5.162469e-01	5.315090e-01	5.479762e-01	5.769826e-01	6.055121e-01	6.386128e-01	6.690239e-01	6.818060e-01	6.885169e-01	6.851688e-01	6.740411e-01	6.669163e-01	6.525487e-01	6.389615e-01	6.263335e-01	6.129113e-01	6.026198e-01	5.926851e-01	5.831363e-01	5.733041e-01	5.634585e-01	5.532073e-01	5.418483e-01	5.303958e-01	5.134697e-01	5.001965e-01	4.778412e-01	4.125535e-01	5.382773e-01	5.335053e-01	5.346012e-01	5.318689e-01	5.306467e-01	5.287485e-01	5.275261e-01	5.256054e-01	5.242032e-01	5.235670e-01	5.225120e-01	5.229175e-01	5.223577e-01	5.223444e-01	5.221456e-01	5.214730e-01	5.217516e-01	5.206882e-01	5.194223e-01	5.158925e-01	5.123855e-01	5.075825e-01	5.027115e-01	5.014921e-01	5.003568e-01	5.060311e-01	5.135807e-01	5.260542e-01	5.513876e-01	5.778273e-01	6.095809e-01	6.522578e-01	6.927060e-01	7.366204e-01	7.882576e-01	8.262867e-01	8.806537e-01	9.097844e-01	8.845523e-01	8.647075e-01	8.396913e-01	8.078577e-01	7.815707e-01	7.540059e-01	7.305068e-01	7.188073e-01	7.113839e-01	7.078946e-01	7.122349e-01	7.164085e-01	7.203765e-01	7.276741e-01	7.322919e-01	7.317559e-01	7.312904e-01	7.273884e-01	7.194249e-01	7.140243e-01	7.081264e-01	7.037097e-01	7.068236e-01	7.100310e-01	7.212080e-01	7.423644e-01	7.608958e-01	8.435081e-01	1.135528e+00	1.306410e+00	1.340372e+00	1.288189e+00	1.200705e+00	1.148030e+00	1.061433e+00	9.475509e-01	8.910901e-01	8.320662e-01	7.691264e-01	7.233970e-01	6.814680e-01	6.423598e-01	6.136174e-01	5.933288e-01	5.743496e-01	5.586366e-01	5.451618e-01	5.313501e-01	5.191290e-01	5.056649e-01	4.911736e-01	4.738343e-01	4.533004e-01	4.278644e-01	3.933078e-01	3.509689e-01	2.931427e-01	2.124878e-01	1.196075e-01	8.212172e-02	
SCALARS Pressure_Coefficient double 1
LOOKUP_TABLE default