# vtk DataFile Version 3.0
vtk output
ASCII
DATASET UNSTRUCTURED_GRID
POINTS 1843 double
1.000000e+02	0.000000e+00	0.0	9.917900e+01	1.278772e+01	0.0	9.672949e+01	2.536546e+01	0.0	9.269168e+01	3.752670e+01	0.0	8.713187e+01	4.907176e+01	0.0	8.014136e+01	5.981105e+01	0.0	7.183494e+01	6.956826e+01	0.0	6.234898e+01	7.818315e+01	0.0	5.183926e+01	8.551428e+01	0.0	4.047833e+01	9.144126e+01	0.0	2.845276e+01	9.586679e+01	0.0	1.595999e+01	9.871818e+01	0.0	3.205158e+00	9.994862e+01	0.0	-9.602303e+00	9.953791e+01	0.0	-2.225209e+01	9.749279e+01	0.0	-3.453651e+01	9.384684e+01	0.0	-4.625383e+01	8.865993e+01	0.0	-5.721167e+01	8.201723e+01	0.0	-6.723009e+01	7.402780e+01	0.0	-7.614460e+01	6.482284e+01	0.0	-8.380881e+01	5.455349e+01	0.0	-9.009689e+01	4.338837e+01	0.0	-9.490557e+01	3.151082e+01	0.0	-9.815592e+01	1.911586e+01	0.0	-9.979454e+01	6.407022e+00	0.0	-9.979454e+01	-6.407022e+00	0.0	-9.815592e+01	-1.911586e+01	0.0	-9.490557e+01	-3.151082e+01	0.0	-9.009689e+01	-4.338837e+01	0.0	-8.380881e+01	-5.455349e+01	0.0	-7.614460e+01	-6.482284e+01	0.0	-6.723009e+01	-7.402780e+01	0.0	-5.721167e+01	-8.201723e+01	0.0	-4.625383e+01	-8.865993e+01	0.0	-3.453651e+01	-9.384684e+01	0.0	-2.225209e+01	-9.749279e+01	0.0	-9.602303e+00	-9.953791e+01	0.0	3.205158e+00	-9.994862e+01	0.0	1.595999e+01	-9.871818e+01	0.0	2.845276e+01	-9.586679e+01	0.0	4.047833e+01	-9.144126e+01	0.0	5.183926e+01	-8.551428e+01	0.0	6.234898e+01	-7.818315e+01	0.0	7.183494e+01	-6.956826e+01	0.0	8.014136e+01	-5.981105e+01	0.0	8.713187e+01	-4.907176e+01	0.0	9.269168e+01	-3.752670e+01	0.0	9.672949e+01	-2.536546e+01	0.0	9.917900e+01	-1.278772e+01	0.0	0.000000e+00	0.000000e+00	0.0	3.159926e-03	3.874902e-03	0.0	6.482595e-03	7.846076e-03	0.0	1.091460e-02	1.089341e-02	0.0	1.555013e-02	1.397926e-02	0.0	2.079570e-02	1.639891e-02	0.0	2.625172e-02	1.884823e-02	0.0	3.208618e-02	2.092776e-02	0.0	3.814481e-02	2.301428e-02	0.0	4.450819e-02	2.487339e-02	0.0	5.111850e-02	2.667464e-02	0.0	5.801332e-02	2.829108e-02	0.0	6.517863e-02	2.974528e-02	0.0	7.260849e-02	3.108364e-02	0.0	8.031539e-02	3.220406e-02	0.0	8.826306e-02	3.335285e-02	0.0	9.644447e-02	3.459390e-02	0.0	1.048314e-01	3.609243e-02	0.0	1.134330e-01	3.780725e-02	0.0	1.222153e-01	3.985782e-02	0.0	1.312035e-01	4.213750e-02	0.0	1.404448e-01	4.444403e-02	0.0	1.499449e-01	4.675462e-02	0.0	1.596896e-01	4.912471e-02	0.0	1.698241e-01	5.083205e-02	0.0	1.802166e-01	5.251966e-02	0.0	1.909049e-01	5.369151e-02	0.0	2.019206e-01	5.398194e-02	0.0	2.131768e-01	5.427871e-02	0.0	2.246302e-01	5.342680e-02	0.0	2.363063e-01	5.232504e-02	0.0	2.482030e-01	5.115723e-02	0.0	2.603064e-01	4.984996e-02	0.0	2.726215e-01	4.851984e-02	0.0	2.851919e-01	4.796843e-02	0.0	2.979782e-01	4.771116e-02	0.0	3.109296e-01	4.785478e-02	0.0	3.239685e-01	4.960002e-02	0.0	3.371740e-01	5.136756e-02	0.0	3.503951e-01	5.393849e-02	0.0	3.636893e-01	5.692686e-02	0.0	3.771151e-01	5.993889e-02	0.0	3.906695e-01	6.292980e-02	0.0	4.043293e-01	6.594395e-02	0.0	4.182004e-01	6.829755e-02	0.0	4.322460e-01	7.012010e-02	0.0	4.463635e-01	7.187142e-02	0.0	4.606420e-01	7.217203e-02	0.0	4.749578e-01	7.247342e-02	0.0	4.892903e-01	7.225187e-02	0.0	5.036259e-01	7.163707e-02	0.0	5.179529e-01	7.099987e-02	0.0	5.322454e-01	7.012980e-02	0.0	5.465007e-01	6.926199e-02	0.0	5.607093e-01	6.848965e-02	0.0	5.748550e-01	6.778215e-02	0.0	5.889194e-01	6.706275e-02	0.0	6.028822e-01	6.621696e-02	0.0	6.167373e-01	6.537769e-02	0.0	6.304430e-01	6.419611e-02	0.0	6.439971e-01	6.279874e-02	0.0	6.573956e-01	6.133938e-02	0.0	6.705176e-01	5.903224e-02	0.0	6.834741e-01	5.675421e-02	0.0	6.961769e-01	5.412792e-02	0.0	7.086243e-01	5.119219e-02	0.0	7.208801e-01	4.830168e-02	0.0	7.328883e-01	4.526373e-02	0.0	7.446870e-01	4.226462e-02	0.0	7.563035e-01	3.944915e-02	0.0	7.677493e-01	3.689184e-02	0.0	7.789691e-01	3.438503e-02	0.0	7.900831e-01	3.258405e-02	0.0	8.009666e-01	3.085806e-02	0.0	8.116518e-01	2.948597e-02	0.0	8.221149e-01	2.831363e-02	0.0	8.323359e-01	2.722026e-02	0.0	8.423151e-01	2.622335e-02	0.0	8.520396e-01	2.521499e-02	0.0	8.614936e-01	2.405477e-02	0.0	8.706974e-01	2.292525e-02	0.0	8.796268e-01	2.164406e-02	0.0	8.883024e-01	2.035468e-02	0.0	8.967241e-01	1.905329e-02	0.0	9.048868e-01	1.769488e-02	0.0	9.128083e-01	1.637663e-02	0.0	9.204804e-01	1.503654e-02	0.0	9.279150e-01	1.372473e-02	0.0	9.351152e-01	1.244065e-02	0.0	9.420828e-01	1.117407e-02	0.0	9.488258e-01	9.947850e-03	0.0	9.553426e-01	8.731701e-03	0.0	9.616434e-01	7.555896e-03	0.0	9.677280e-01	6.397090e-03	0.0	9.736046e-01	5.273794e-03	0.0	9.792745e-01	4.167878e-03	0.0	9.847449e-01	3.092187e-03	0.0	9.900194e-01	2.039219e-03	0.0	9.951021e-01	1.005200e-03	0.0	1.000000e+00	0.000000e+00	0.0	9.950053e-01	2.287175e-04	0.0	9.898208e-01	4.249809e-04	0.0	9.844413e-01	5.700618e-04	0.0	9.788626e-01	6.704181e-04	0.0	9.730802e-01	7.462619e-04	0.0	9.670891e-01	7.641785e-04	0.0	9.608853e-01	7.591040e-04	0.0	9.544641e-01	6.887873e-04	0.0	9.478212e-01	6.019740e-04	0.0	9.409535e-01	4.200335e-04	0.0	9.338554e-01	2.319857e-04	0.0	9.265262e-01	-6.278702e-05	0.0	9.189597e-01	-3.894280e-04	0.0	9.111545e-01	-7.778349e-04	0.0	9.031090e-01	-1.262549e-03	0.0	8.948164e-01	-1.762155e-03	0.0	8.862837e-01	-2.413743e-03	0.0	8.775007e-01	-3.100863e-03	0.0	8.684719e-01	-3.888331e-03	0.0	8.591984e-01	-4.801967e-03	0.0	8.496732e-01	-5.763847e-03	0.0	8.399252e-01	-7.028645e-03	0.0	8.299240e-01	-8.326298e-03	0.0	8.197469e-01	-1.013646e-02	0.0	8.093382e-01	-1.209957e-02	0.0	7.987876e-01	-1.456608e-02	0.0	7.880773e-01	-1.744598e-02	0.0	7.771874e-01	-2.057101e-02	0.0	7.662682e-01	-2.441215e-02	0.0	7.551269e-01	-2.833139e-02	0.0	7.438102e-01	-3.244160e-02	0.0	7.323006e-01	-3.667572e-02	0.0	7.205651e-01	-4.091627e-02	0.0	7.084056e-01	-4.454372e-02	0.0	6.960542e-01	-4.822846e-02	0.0	6.833278e-01	-5.111717e-02	0.0	6.702209e-01	-5.313998e-02	0.0	6.569449e-01	-5.518887e-02	0.0	6.433592e-01	-5.526837e-02	0.0	6.296179e-01	-5.525084e-02	0.0	6.157574e-01	-5.477478e-02	0.0	6.017937e-01	-5.376031e-02	0.0	5.877203e-01	-5.273788e-02	0.0	5.735364e-01	-5.193412e-02	0.0	5.592702e-01	-5.113087e-02	0.0	5.449279e-01	-5.093681e-02	0.0	5.305243e-01	-5.134397e-02	0.0	5.160851e-01	-5.179015e-02	0.0	5.016751e-01	-5.310708e-02	0.0	4.872574e-01	-5.442471e-02	0.0	4.728572e-01	-5.584242e-02	0.0	4.584871e-01	-5.733285e-02	0.0	4.441500e-01	-5.876519e-02	0.0	4.298253e-01	-5.971928e-02	0.0	4.155681e-01	-6.066887e-02	0.0	4.013745e-01	-6.118366e-02	0.0	3.872665e-01	-6.145181e-02	0.0	3.732681e-01	-6.167966e-02	0.0	3.593908e-01	-6.172361e-02	0.0	3.456495e-01	-6.176713e-02	0.0	3.320589e-01	-6.199675e-02	0.0	3.186292e-01	-6.230235e-02	0.0	3.053763e-01	-6.273326e-02	0.0	2.923249e-01	-6.360673e-02	0.0	2.794643e-01	-6.446743e-02	0.0	2.668218e-01	-6.554352e-02	0.0	2.543940e-01	-6.668608e-02	0.0	2.421804e-01	-6.779297e-02	0.0	2.301844e-01	-6.882504e-02	0.0	2.184174e-01	-6.983742e-02	0.0	2.068631e-01	-7.050048e-02	0.0	1.955399e-01	-7.101810e-02	0.0	1.844591e-01	-7.136639e-02	0.0	1.736194e-01	-7.110744e-02	0.0	1.630302e-01	-7.085448e-02	0.0	1.527450e-01	-6.990011e-02	0.0	1.427335e-01	-6.868472e-02	0.0	1.330247e-01	-6.723712e-02	0.0	1.237465e-01	-6.487580e-02	0.0	1.147159e-01	-6.257752e-02	0.0	1.061957e-01	-5.953972e-02	0.0	9.803073e-02	-5.623126e-02	0.0	9.013400e-02	-5.294221e-02	0.0	8.275302e-02	-4.912931e-02	0.0	7.559204e-02	-4.543006e-02	0.0	6.872345e-02	-4.170502e-02	0.0	6.213719e-02	-3.796617e-02	0.0	5.575605e-02	-3.434871e-02	0.0	4.951209e-02	-3.096752e-02	0.0	4.347092e-02	-2.769614e-02	0.0	3.754880e-02	-2.468630e-02	0.0	3.180687e-02	-2.181119e-02	0.0	2.625279e-02	-1.904689e-02	0.0	2.090962e-02	-1.633895e-02	0.0	1.585654e-02	-1.352664e-02	0.0	1.112117e-02	-1.058526e-02	0.0	6.686527e-03	-7.540758e-03	0.0	2.805777e-03	-4.097322e-03	0.0	8.350085e-02	-5.527378e-02	0.0	7.711907e-02	-5.375912e-02	0.0	7.996387e-02	-6.046407e-02	0.0	8.655209e+01	2.661641e+01	0.0	8.256233e+01	2.046748e+01	0.0	8.885094e+01	1.729605e+01	0.0	7.569493e+01	-1.342522e+01	0.0	7.619180e+01	-2.529857e+01	0.0	8.712799e+01	-1.807312e+01	0.0	8.627270e+01	-5.234588e+00	0.0	3.094889e+01	3.540981e+01	0.0	2.772872e+01	2.426465e+01	0.0	3.797838e+01	2.776117e+01	0.0	8.192385e+01	3.565823e+01	0.0	7.288676e+01	3.397480e+01	0.0	7.612150e+01	2.493489e+01	0.0	6.913445e+01	-3.543457e+01	0.0	7.551232e+01	-4.367614e+01	0.0	8.152326e+01	-3.609846e+01	0.0	8.718322e+01	-2.816887e+01	0.0	4.825535e+01	3.083896e+01	0.0	5.743299e+01	3.272220e+01	0.0	5.352160e+01	4.067182e+01	0.0	7.215119e+01	-5.288255e+01	0.0	6.281896e+01	-5.055665e+01	0.0	6.267956e+01	-5.834724e+01	0.0	6.840112e+01	5.944476e+01	0.0	7.275497e+01	5.053629e+01	0.0	5.794287e+01	6.570194e+01	0.0	4.379676e+01	-6.362729e+01	0.0	4.463531e+01	-7.466079e+01	0.0	5.340428e+01	-7.194351e+01	0.0	6.762081e+01	-4.489339e+01	0.0	5.164568e+01	7.506448e+01	0.0	3.577113e+01	7.280566e+01	0.0	2.698384e+01	7.402909e+01	0.0	3.182842e+01	6.454494e+01	0.0	5.321037e+01	-5.362216e+01	0.0	5.516245e+01	-6.299266e+01	0.0	2.706303e+01	8.474280e+01	0.0	3.455970e+01	8.033514e+01	0.0	3.627115e+01	-7.198259e+01	0.0	2.503760e+01	-7.500082e+01	0.0	3.809897e+01	-8.076121e+01	0.0	5.522179e-01	3.649056e+01	0.0	-3.144375e+00	4.670671e+01	0.0	-9.098202e+00	4.146334e+01	0.0	1.894677e+01	8.952718e+01	0.0	1.452008e+01	7.849880e+01	0.0	1.305392e+01	4.023661e+01	0.0	5.842111e+00	4.862909e+01	0.0	6.621390e+00	-1.155259e-01	0.0	9.328356e+00	-2.604888e-01	0.0	7.382485e+00	2.464489e+00	0.0	3.812163e+00	1.288234e+00	0.0	3.848277e+00	2.673342e+00	0.0	2.821146e+00	2.001919e+00	0.0	1.708420e+00	4.937905e-01	0.0	1.456384e+00	3.348501e-01	0.0	1.600994e+00	1.886410e-01	0.0	1.250370e+00	-4.771078e-02	0.0	1.324203e+00	2.909043e-02	0.0	1.224857e+00	2.750177e-02	0.0	1.020046e+00	2.121354e-02	0.0	1.035589e+00	2.453907e-02	0.0	1.023772e+00	3.409725e-02	0.0	1.008281e+00	2.609215e-02	0.0	9.952811e-01	3.296765e-02	0.0	9.963027e-01	2.130519e-02	0.0	1.000310e+00	9.506038e-03	0.0	9.988493e-01	4.273660e-03	0.0	1.004926e+00	5.728034e-03	0.0	9.958602e-01	7.537759e-03	0.0	9.945423e-01	1.251447e-02	0.0	9.916253e-01	7.153650e-03	0.0	1.041571e+00	6.637639e-02	0.0	1.015358e+00	6.196095e-02	0.0	1.026799e+00	4.919518e-02	0.
[...]
POINT_DATA 1843

SCALARS Density double 1
LOOKUP_TABLE default
1.291702e+00	1.291763e+00	1.292073e+00	1.292184e+00	1.292114e+00	1.292053e+00	1.292016e+00	1.291962e+00	1.291902e+00	1.291850e+00	1.291806e+00	1.291780e+00	1.291787e+00	1.291837e+00	1.291917e+00	1.292001e+00	1.292074e+00	1.292131e+00	1.292178e+00	1.292211e+00	1.292235e+00	1.292254e+00	1.292267e+00	1.292280e+00	1.292289e+00	1.292299e+00	1.292310e+00	1.292322e+00	1.292337e+00	1.292357e+00	1.292383e+00	1.292416e+00	1.292461e+00	1.292512e+00	1.292575e+00	1.292652e+00	1.292725e+00	1.292784e+00	1.292795e+00	1.292771e+00	1.292721e+00	1.292657e+00	1.292593e+00	1.292521e+00	1.292452e+00	1.292408e+00	1.292417e+00	1.292334e+00	1.292015e+00	1.500136e+00	1.160126e+00	1.117126e+00	1.036284e+00	9.951064e-01	9.530881e-01	9.424961e-01	9.310476e-01	9.302476e-01	9.123608e-01	8.917008e-01	8.724716e-01	8.909756e-01	9.790316e-01	1.097401e+00	1.165696e+00	1.196050e+00	1.208329e+00	1.208158e+00	1.194090e+00	1.156979e+00	1.111060e+00	1.070611e+00	9.890045e-01	9.182899e-01	8.683857e-01	7.758529e-01	7.173473e-01	6.549921e-01	5.864066e-01	5.683195e-01	6.210259e-01	9.095029e-01	1.224791e+00	1.235286e+00	1.247278e+00	1.257746e+00	1.245982e+00	1.222634e+00	1.211568e+00	1.173870e+00	1.132629e+00	1.093654e+00	1.034033e+00	9.687180e-01	9.269563e-01	8.462622e-01	7.836980e-01	7.637627e-01	7.294504e-01	7.165396e-01	7.141157e-01	7.109077e-01	7.190204e-01	7.316238e-01	7.409353e-01	7.394453e-01	7.340667e-01	7.115135e-01	6.822770e-01	6.867122e-01	7.509418e-01	9.686749e-01	1.075689e+00	1.094359e+00	1.122092e+00	1.148550e+00	1.169310e+00	1.191309e+00	1.209981e+00	1.218667e+00	1.232435e+00	1.236759e+00	1.232758e+00	1.234673e+00	1.228410e+00	1.223083e+00	1.219221e+00	1.212400e+00	1.212211e+00	1.212632e+00	1.214047e+00	1.219476e+00	1.221908e+00	1.227305e+00	1.232286e+00	1.236737e+00	1.242004e+00	1.246058e+00	1.250630e+00	1.254766e+00	1.259093e+00	1.263729e+00	1.268181e+00	1.273033e+00	1.278078e+00	1.283106e+00	1.294229e+00	1.281749e+00	1.307217e+00	1.410450e+00	1.390401e+00	1.390439e+00	1.394711e+00	1.395172e+00	1.397385e+00	1.398366e+00	1.400677e+00	1.401558e+00	1.402969e+00	1.404509e+00	1.404117e+00	1.406619e+00	1.406037e+00	1.408272e+00	1.409791e+00	1.410056e+00	1.413020e+00	1.413330e+00	1.418375e+00	1.419121e+00	1.424390e+00	1.426512e+00	1.425381e+00	1.427164e+00	1.415841e+00	1.413010e+00	1.396457e+00	1.368411e+00	1.345734e+00	1.309688e+00	1.255316e+00	1.216857e+00	1.151258e+00	9.961563e-01	8.876116e-01	8.574088e-01	9.301301e-01	1.048130e+00	1.097415e+00	1.164599e+00	1.230829e+00	1.268491e+00	1.305787e+00	1.337404e+00	1.336689e+00	1.344328e+00	1.339900e+00	1.314939e+00	1.300033e+00	1.277697e+00	1.244933e+00	1.227841e+00	1.213907e+00	1.203076e+00	1.215164e+00	1.224216e+00	1.237218e+00	1.259339e+00	1.272387e+00	1.279607e+00	1.294002e+00	1.292095e+00	1.282375e+00	1.274222e+00	1.253152e+00	1.230847e+00	1.209270e+00	1.174149e+00	1.148145e+00	1.120744e+00	1.016724e+00	9.172222e-01	8.770159e-01	8.886444e-01	9.268002e-01	9.399244e-01	9.991271e-01	1.053453e+00	1.105928e+00	1.193770e+00	1.229119e+00	1.282511e+00	1.345341e+00	1.379960e+00	1.418780e+00	1.455298e+00	1.478603e+00	1.500246e+00	1.517975e+00	1.529841e+00	1.542676e+00	1.554239e+00	1.569179e+00	1.587885e+00	1.616665e+00	1.619421e+00	1.678841e+00	1.330614e+00	1.366899e+00	1.347153e+00	1.292106e+00	1.292005e+00	1.291978e+00	1.292188e+00	1.292354e+00	1.292227e+00	1.291936e+00	1.291729e+00	1.291730e+00	1.291904e+00	1.292125e+00	1.292110e+00	1.292078e+00	1.292428e+00	1.292414e+00	1.292384e+00	1.292351e+00	1.291996e+00	1.292042e+00	1.291965e+00	1.292457e+00	1.292498e+00	1.292524e+00	1.292008e+00	1.292040e+00	1.291950e+00	1.292673e+00	1.292683e+00	1.292621e+00	1.292446e+00	1.291908e+00	1.291800e+00	1.291734e+00	1.291747e+00	1.292563e+00	1.292585e+00	1.291771e+00	1.291798e+00	1.292748e+00	1.292822e+00	1.292735e+00	1.290968e+00	1.291276e+00	1.291274e+00	1.291755e+00	1.291696e+00	1.291222e+00	1.291337e+00	1.290203e+00	1.290734e+00	1.290794e+00	1.289319e+00	1.291044e+00	1.288384e+00	1.297422e+00	1.303499e+00	1.290795e+00	1.311038e+00	1.288051e+00	1.288295e+00	1.302473e+00	1.302962e+00	1.307659e+00	1.304950e+00	1.302594e+00	1.299552e+00	1.298385e+00	1.305905e+00	1.296675e+00	1.296897e+00	1.299732e+00	1.293316e+00	1.316584e+00	1.311238e+00	1.311122e+00	1.286807e+00	1.291180e+00	1.293314e+00	1.290575e+00	1.282100e+00	1.284742e+00	1.274844e+00	1.295399e+00	1.279422e+00	1.284675e+00	8.177389e-01	9.915147e-01	9.807055e-01	1.089033e+00	1.040997e+00	1.096740e+00	1.242421e+00	1.245288e+00	1.233515e+00	1.269595e+00	1.249229e+00	1.266611e+00	1.278357e+00	1.257771e+00	1.270157e+00	1.255253e+00	1.214904e+00	1.245397e+00	1.235454e+00	1.145105e+00	1.181062e+00	1.099375e+00	1.166499e+00	1.410665e+00	1.410739e+00	1.423008e+00	1.420864e+00	1.337457e+00	1.302718e+00	1.307527e+00	1.295546e+00	1.206832e+00	1.247358e+00	1.346431e+00	1.295477e+00	1.344239e+00	8.579870e-01	9.371410e-01	9.555669e-01	9.146348e-01	1.144373e+00	1.141690e+00	1.180006e+00	9.352578e-01	1.214547e+00	1.226947e+00	8.113942e-01	7.846339e-01	7.718017e-01	1.231444e+00	1.240962e+00	1.232942e+00	1.288686e+00	1.285875e+00	1.285034e+00	1.235674e+00	1.241355e+00	7.447093e-01	7.271345e-01	7.404313e-01	8.943310e-01	8.109112e-01	8.154493e-01	7.238890e-01	7.178473e-01	1.026472e+00	6.650464e-01	9.357868e-01	1.237749e+00	1.210215e+00	1.168821e+00	1.238145e+00	1.224341e+00	1.277526e+00	1.268528e+00	1.269317e+00	1.324792e+00	1.216953e+00	1.223873e+00	1.213315e+00	1.327076e+00	1.331441e+00	1.321315e+00	1.228113e+00	1.266881e+00	1.276097e+00	1.268920e+00	1.284854e+00	1.280992e+00	1.285592e+00	1.287983e+00	1.296791e+00	1.310966e+00	1.295544e+00	1.315490e+00	1.224644e+00	1.228254e+00	1.232759e+00	1.240836e+00	1.238197e+00	1.223248e+00	1.237679e+00	1.228079e+00	1.235674e+00	1.259345e+00	1.268524e+00	1.264055e+00	1.221668e+00	1.225550e+00	1.235270e+00	1.236995e+00	1.293502e+00	1.279056e+00	1.286424e+00	1.232111e+00	1.229510e+00	1.240250e+00	1.244671e+00	1.260412e+00	1.249073e+00	1.254737e+00	1.265386e+00	1.277645e+00	1.273675e+00	1.248365e+00	1.218229e+00	1.229061e+00	1.263191e+00	1.269034e+00	1.259659e+00	1.255606e+00	1.273137e+00	1.269616e+00	1.278749e+00	1.306510e+00	1.308100e+00	1.252559e+00	1.231144e+00	1.247062e+00	1.241677e+00	1.240135e+00	1.220704e+00	1.231667e+00	1.154158e+00	1.144381e+00	1.118116e+00	1.161488e+00	1.175075e+00	1.188859e+00	1.151141e+00	1.205721e+00	1.404438e+00	1.196623e+00	1.168722e+00	1.138492e+00	9.039299e-01	1.172579e+00	1.188693e+00	1.257007e+00	1.259722e+00	1.257078e+00	1.410936e+00	1.408427e+00	1.408113e+00	9.549211e-01	9.950572e-01	1.000779e+00	9.598354e-01	9.524421e-01	1.151072e+00	1.215840e+00	1.152301e+00	7.605576e-01	7.617014e-01	7.332609e-01	7.895209e-01	8.050390e-01	7.652050e-01	6.955649e-01	1.412052e+00	7.243816e-01	7.396435e-01	1.115971e+00	1.129484e+00	1.144162e+00	7.588956e-01	7.464878e-01	7.374770e-01	7.117850e-01	1.290513e+00	1.290509e+00	8.542310e-01	7.829805e-01	1.291904e+00	1.291821e+00	1.240939e+00	1.223753e+00	1.192338e+00	1.289190e+00	1.290720e+00	1.291124e+00	1.223588e+00	1.268884e+00	1.274025e+00	1.291817e+00	6.560664e-01	1.631807e+00	1.614666e+00	1.429815e+00	1.397798e+00	1.421248e+00	1.592779e+00	1.650777e+00	1.571743e+00	1.310783e+00	1.317584e+00	1.313461e+00	1.299433e+00	1.297559e+00	1.301957e+00	1.401477e+00	1.402025e+00	1.403301e+00	1.404597e+00	1.405188e+00	1.399876e+00	1.405644e+00	1.405855e+00	1.556149e+00	1.536831e+00	1.543908e+00	1.295766e+00	1.295537e+00	1.294298e+00	1.509830e+00	1.494455e+00	1.481857e+00	1.398156e+00	1.407030e+00	1.392801e+00	1.404109e+00	1.413449e+00	1.028190e+00	1.411586e+00	1.416547e+00	1.034186e+00	9.614971e-01	9.747953e-01	1.422327e+00	1.423532e+00	1.419469e+00	1.415091e+00	1.419367e+00	1.168039e+00	1.197992e+00	1.240007e+00	1.420120e+00	1.423878e+00	1.420734e+00	1.416973e+00	1.417943e+00	1.415542e+00	1.421447e+00	1.413331e+00	1.414014e+00	1.293038e+00	1.319562e+00	1.325634e+00	1.408825e+00	1.163237e+00	1.097387e+00	1.019668e+00	1.055135e+00	1.145465e+00	1.167681e+00	1.224429e+00	1.194007e+00	1.261689e+00	1.280258e+00	1.312101e+00	1.327129e+00	1.292824e+00	1.292778e+00	9.213101e-01	9.613990e-01	8.820252e-01	1.226288e+00	1.210988e+00	1.090584e+00	1.019515e+00	9.925075e-01	1.251075e+00	1.271261e+00	1.252853e+00	1.275644e+00	1.140479e+00	1.084013e+00	1.116807e+00	1.052116e+00	1.052776e+00	7.486736e-01	8.021278e-01	6.711073e-01	7.302937e-01	1.142226e+00	1.265891e+00	1.152576e+00	1.165517e+00	1.178115e+00	1.183879e+00	1.165542e+00	1.205074e+00	1.204898e+00	1.291961e+00	1.189126e+00	1.132430e+00	1.163598e+00	1.292056e+00	1.025628e+00	1.105769e+00	1.029515e+00	1.249000e+00	1.276445e+00	1.271138e+00	1.292169e+00	1.291285e+00	1.291628e+00	1.291085e+00	1.292003e+00	1.291307e+00	1.292432e+00	1.292211e+00	1.292194e+00	1.292179e+00	1.292154e+00	9.043732e-01	1.301252e+00	1.219713e+00	1.280955e+00	1.292271e+00	1.292245e+00	1.292269e+00	1.292206e+00	1.292213e+00	1.292299e+00	1.292318e+00	1.292329e+00	1.292343e+00	1.292389e+00	1.292373e+00	1.292420e+00	1.292371e+00	1.292357e+00	1.292499e+00	1.292418e+00	1.292467e+00	1.292291e+00	1.292182e+00	1.292502e+00	1.293743e+00	1.293395e+00	1.293917e+00	1.292483e+00	1.292785e+00	1.293115e+00	1.295222e+00	1.299048e+00	1.292566e+00	1.292525e+00	1.297623e+00	1.296908e+00	1.303039e+00	1.600282e+00	1.293026e+00	1.293061e+00	1.569674e+00	1.560259e+00	1.292757e+00	1.292641e+00	1.292724e+00	1.529335e+00	1.514909e+00	1.531363e+00	1.540687e+00	1.508114e+00	1.495018e+00	1.492990e+00	1.292865e+00	1.292824e+00	1.477875e+00	1.315497e+00	1.325673e+00	1.292804e+00	1.292812e+00	1.292723e+00	1.462366e+00	1.456992e+00	1.439531e+00	1.284129e+00	1.250907e+00	1.230951e+00	1.056244e+00	1.103219e+00	1.332713e+00	1.374794e+00	1.337650e+00	1.320523e+00	1.268275e+00	1.288536e+00	1.384734e+00	1.400892e+00	1.359667e+00	1.292286e+00	1.291735e+00	1.291858e+00	1.290874e+00	1.202518e+00	1.292753e+00	1.292814e+00	1.293476e+00	1.388794e+00	1.388796e+00	1.374897e+00	1.293360e+00	1.293535e+00	1.294317e+00	1.292569e+00	1.292465e+00	1.292485e+00	1.292149e+00	1.293428e+00	1.292686e+00	1.291856e+00	1.291855e+00	1.291739e+00	1.291862e+00	1.291799e+00	1.291967e+00	1.292500e+00	1.292009e+00	1.292027e+00	1.292194e+00	1.292890e+00	1.293214e+00	1.292887e+00	1.292047e+00	1.292005e+00	1.291778e+00	1.292166e+00	1.291542e+00	1.291499e+00	1.292170e+00	1.291859e+00	1.290920e+00	1.290397e+00	1.291440e+00	1.288103e+00	1.289631e+00	1.289019e+00	1.292820e+00	1.292617e+00	1.292659e+00	1.292291e+00	1.292319e+00	1.292328e+00	1.292257e+00	1.292249e+00	1.292222e+00	1.292186e+00	1.292152e+00	1.291754e+00	1.291694e+00	1.292886e+00	1.292963e+00	1.292919e+00	1.292989e+00	1.292080e+00	1.292033e+00	1.291969e+00	1.291756e+00	1.291850e+00	1.291804e+00	1.291907e+00	1.291920e+00	1.291958e+00	1.291916e+00	1.292310e+00	1.292396e+00	1.293168e+00	1.293070e+00	1.292797e+00	1.292426e+00	1.292042e+00	1.291894e+00	1.291986e+00	1.292400e+00	1.292144e+00	1.292843e+00	1.189588e+00	1.162164e+00	1.120488e+00	9.410530e-01	9.395515e-01	1.289550e+00	1.291155e+00	1.293301e+00	1.291876e+00	1.292408e+00	1.293131e+00	1.292897e+00	1.292885e+00	1.291986e+00	1.291850e+00	1.292105e+00	1.291963e+00	1.292375e+00	1.292383e+00	1.292585e+00	1.291442e+00	1.292756e+00	1.293394e+00	1.292960e+00	1.013429e+00	1.063785e+00	1.021182e+00	1.295318e+00	1.294553e+00	1.295899e+00	1.291853e+00	1.292839e+00	1.293111e+00	1.293634e+00	1.292229e+00	1.290357e+00	7.472690e-01	7.526128e-01	7.483875e-01	1.292304e+00	1.292445e+00	1.291783e+00	1.291710e+00	1.291689e+00	1.292232e+00	1.292314e+00	1.292364e+00	1.292392e+00	1.292399e+00	1.292104e+00	1.292898e+00	1.292665e+00	1.292875e+00	1.292951e+00	1.292802e+00	1.291972e+00	1.292039e+00	1.292431e+00	1.292487e+00	1.292557e+00	1.292566e+00	1.292645e+00	1.292292e+00	1.292854e+00	1.292700e+00	1.292698e+00	1.291700e+00	1.292442e+00	1.292537e+00	1.291679e+00	1.291494e+00	1.291630e+00	1.291607e+00	1.292888e+00	1.292697e+00	1.291264e+00	1.291953e+00	1.291892e+00	1.291964e+00	1.292531e+00	1.292683e+00	1.292630e+00	1.289639e+00	1.294066e+00	1.280388e+00	1.289917e+00	1.285192e+00	1.292600e+00	1.291878e+00	1.292471e+00	1.292073e+00	1.291997e+00	1.291502e+00	1.293013e+00	1.292856e+00	1.291511e+00	1.291864e+00	1.292820e+00	1.292689e+00	1.292718e+00	1.291896e+00	1.291586e+00	1.292627e+00	1.292347e+00	1.292091e+00	1.292428e+00	1.292045e+00	1.291567e+00	1.291630e+00	1.292526e+00	1.292267e+00	8.301150e-01	7.932565e-01	1.291711e+00	1.292442e+00	1.294515e+00	1.292786e+00	1.292926e+00	1.292526e+00	1.290597e+00	1.296138e+00	1.294250e+00	1.293692e+00	1.294279e+00	1.291622e+00	1.291286e+00	1.291167e+00	1.358622e+00	1.348465e+00	1.312482e+00	1.288838e+00	1.294432e+00	1.297829e+00	1.298153e+00	1.295591e+00	1.292370e+00	1.291100e+00	1.288324e+00	1.295102e+00	1.285864e+00	1.286890e+00	1.293039e+00	1.292237e+00	1.291064e+00	1.212383e+00	1.296383e+00	1.296617e+00	1.298577e+00	1.297277e+00	1.223849e+00	1.263730e+00	1.243281e+00	1.288591e+00	1.294465e+00	1.297625e+00	1.297590e+00	1.287534e+00	1.283652e+00	1.291369e+00	1.290853e+00	1.291151e+00	1.294134e+00	1.395309e+00	1.391933e+00	1.299555e+00	1.282237e+00	1.296402e+00	1.299615e+00	1.295300e+00	1.295292e+00	1.278464e+00	1.284408e+00	1.288906e+00	1.280152e+00	1.283504e+00	1.299952e+00	1.308625e+00	1.302647e+00	1.303091e+00	1.273722e+00	1.268949e+00	1.286905e+00	1.292228e+00	1.288882e+00	1.416581e+00	1.414651e+00	1.300036e+00	1.294098e+00	1.319118e+00	1.324484e+00	1.333857e+00	1.046565e+00	1.302146e+00	1.304257e+00	1.305522e+00	1.301317e+00	1.294187e+00	1.300339e+00	1.289674e+00	1.301685e+00	1.297190e+00	1.300481e+00	1.277712e+00	1.274010e+00	1.299027e+00	1.302144e+00	1.313752e+00	1.305134e+00	1.299215e+00	1.271130e+00	1.286277e+00	1.271432e+00	1.302028e+00	1.330180e+00	1.309809e+00	1.310247e+00	9.559249e-01	9.681043e-01	1.262424e+00	1.305746e+00	1.303861e+00	1.308569e+00	1.294175e+00	1.297973e+00	1.261896e+00	1.262123e+00	1.308668e+00	1.308898e+00	1.301228e+00	1.304573e+00	1.304835e+00	1.280287e+00	1.273353e+00	1.363812e+00	1.399624e+00	1.383757e+00	1.208156e+00	1.303080e+00	1.293864e+00	1.291155e+00	1.279957e+00	1.287718e+00	1.287009e+00	1.286309e+00	1.306963e+00	1.306887e+00	1.316305e+00	1.328126e+00	1.324820e+00	1.311698e+00	1.607852e+00	1.623638e+00	1.620139e+00	1.111097e+00	1.184546e+00	1.181064e+00	1.315097e+00	1.322614e+00	1.320468e+00	1.284634e+00	1.287790e+00	1.299615e+00	1.292486e+00	1.118455e+00	1.124009e+00	1.128594e+00	7.423122e-01	1.234314e+00	1.282047e+00	1.271523e+00	1.294750e+00	1.313063e+00	1.307779e+00	1.268376e+00	1.289470e+00	1.286189e+00	1.287595e+00	1.259283e+00	1.261698e+00	1.259914e+00	1.215004e+00	1.142572e+00	1.073590e+00	1.194708e+00	1.344225e+00	1.322338e+00	1.336704e+00	1.074144e+00	1.049772e+00	1.311596e+00	1.314654e+00	1.290993e+00	1.283668e+00	1.148700e+00	1.101144e+00	1.415218e+00	1.431510e+00	1.117097e+00	1.160105e+00	1.074758e+00	1.320748e+00	1.317503e+00	1.146993e+00	1.262804e+00	1.187130e+00	1.260825e+00	1.188576e+00	1.224514e+00	1.279506e+00	1.272396e+00	1.272610e+00	1.256693e+00	1.336509e+00	1.350543e+00	1.299862e+00	1.307931e+00	1.293623e+00	1.295145e+00	1.094411e+00	1.307287e+00	1.596562e+00	1.496760e+00	1.538285e+00	1.334143e+00	1.096699e+00	1.113974e+00	1.297890e+00	1.304132e+00	8.924899e-01	1.328612e+00	1.343721e+00	1.319854e+00	1.293217e+00	1.323461e+00	1.358044e+00	1.343950e+00	1.352317e+00	1.271352e+00	1.259638e+00	1.311320e+00	1.307421e+00	1.298326e+00	1.289579e+00	1.323532e+00	1.307447e+00	1.312756e+00	1.302899e+00	1.300474e+00	1.312302e+00	1.279161e+00	1.354776e+00	1.395292e+00	1.374222e+00	1.394938e+00	1.332143e+00	1.338382e+00	1.317757e+00	1.341862e+00	1.378756e+00	1.374830e+00	1.037181e+00	1.069632e+00	1.093919e+00	9.638476e-01	1.368675e+00	1.395158e+00	1.372763e+00	1.228335e+00	1.192343e+00	1.193764e+00	1.078181e+00	1.003477e+00	1.115031e+00	1.166465e+00	1.349388e+00	1.158513e+00	1.097925e+00	9.754004e-01	1.243749e+00	1.273744e+00	1.259020e+00	1.248462e+00	1.258471e+00	1.298285e+00	9.233291e-01	8.983083e-01	1.407953e+00	1.405117e+00	1.406084e+00	1.304997e+00	1.339657e+00	1.329604e+00	1.269611e+00	1.019796e+00	9.573928e-01	1.050946e+00	1.351386e+00	1.284342e+00	1.284793e+00	1.330389e+00	1.124042e+00	1.365648e+00	1.357223e+00	1.049691e+00	1.042159e+00	1.054584e+00	1.103777e+00	1.010829e+00	1.231365e+00	1.197281e+00	1.275539e+00	1.325485e+00	1.345977e+00	1.358751e+00	1.351298e+00	1.358729e+00	1.260555e+00	1.261682e+00	1.253648e+00	1.266607e+00	1.260868e+00	1.256102e+00	1.326039e+00	1.373588e+00	1.134331e+00	1.106673e+00	1.365878e+00	1.380182e+00	1.381134e+00	1.350333e+00	1.342270e+00	1.348260e+00	1.293321e+00	1.357549e+00	1.239378e+00	1.310841e+00	1.266000e+00	1.366999e+00	1.340916e+00	1.343249e+00	1.045252e+00	1.058404e+00	1.124020e+00	1.402325e+00	1.117125e+00	1.168580e+00	1.384571e+00	1.391118e+00	1.381489e+00	1.362121e+00	1.261634e+00	1.419961e+00	1.453385e+00	1.432129e+00	1.468724e+00	1.455618e+00	1.382247e+00	1.397177e+00	1.321744e+00	1.378770e+00	1.397279e+00	9.738155e-01	1.170663e+00	1.061494e+00	1.071121e+00	1.234907e+00	1.184924e+00	1.289842e+00	1.243632e+00	1.230855e+00	1.136631e+00	1.161386e+00	1.286703e+00	1.313036e+00	1.312328e+00	8.555168e-01	1.022343e+00	1.305601e+00	1.120504e+00	1.102400e+00	1.249707e+00	1.261517e+00	1.135271e+00	1.142337e+00	1.191596e+00	1.086413e+00	1.396575e+00	1.487024e+00	1.465296e+00	1.518205e+00	1.251681e+00	1.258714e+00	1.231640e+00	1.271014e+00	1.266360e+00	1.199673e+00	1.200961e+00	1.317221e+00	1.365583e+00	1.367813e+00	1.267170e+00	1.247126e+00	1.074641e+00	9.072636e-01	1.396577e+00	7.522901e-01	8.811769e-01	9.483331e-01	1.209124e+00	1.180493e+00	1.235220e+00	1.178557e+00	1.197436e+00	1.022380e+00	9.442522e-01	9.714866e-01	1.161155e+00	1.101474e+00	1.254115e+00	1.234699e+00	1.293584e+00	1.199093e+00	1.246546e+00	1.242779e+00	1.256531e+00	1.254051e+00	1.258351e+00	6.064455e-01	9.583516e-01	1.113281e+00	1.058636e+00	1.510306e+00	1.387605e+00	1.419856e+00	1.190875e+00	1.145446e+00	7.635849e-01	7.656100e-01	7.491984e-01	7.560207e-01	1.442665e+00	1.427499e+00	1.151813e+00	1.311519e+00	1.294597e+00	1.280046e+00	1.268140e+00	1.267250e+00	1.240263e+00	7.266039e-01	8.202376e-01	7.619642e-01	1.288390e+00	1.297352e+00	1.298558e+00	1.286831e+00	1.251990e+00	1.236103e+00	1.246560e+00	1.220884e+00	1.285027e+00	1.275903e+00	1.285713e+00	1.229887e+00	9.657669e-01	1.419154e+00	1.388108e+00	1.385342e+00	1.447163e+00	1.263313e+00	1.266073e+00	1.349025e+00	1.370898e+00	1.342978e+00	1.204151e+00	9.921706e-01	1.391709e+00	1.365281e+00	1.018585e+00	8.278866e-01	1.408212e+00	1.409932e+00	1.412307e+00	1.363597e+00	7.941468e-01	1.234191e+00	1.088657e+00	7.990616e-01	1.527493e+00	1.509423e+00	1.272002e+00	1.239638e+00	1.249187e+00	1.213320e+00	1.260641e+00	1.409795e+00	1.414960e+00	1.445604e+00	1.230326e+00	1.283749e+00	9.358394e-01	9.096497e-01	1.012779e+00	1.033338e+00	1.086393e+00	1.301847e+00	1.372392e+00	1.119709e+00	1.118691e+00	9.319903e-01	9.135285e-01	9.847656e-01	1.412079e+00	1.250865e+00	1.274339e+00	1.267827e+00	1.267155e+00	7.630265e-01	1.458085e+00	1.472526e+00	1.505054e+00	1.441647e+00	1.384446e+00	1.373384e+00	1.303449e+00	1.220726e+00	1.216923e+00	1.239878e+00	1.117018e+00	1.151791e+00	1.268412e+00	1.236348e+00	1.238427e+00	1.244010e+00	1.143310e+00	1.132930e+00	1.549388e+00	1.546509e+00	1.477417e+00	7.332908e-01	7.470868e-01	7.737421e-01	1.299495e+00	1.399118e+00	1.359836e+00	1.384996e+00	1.358567e+00	1.244958e+00	1.237859e+00	1.235986e+00	1.235645e+00	1.287749e+00	1.283361e+00	1.188780e+00	1.297655e+00	1.284592e+00	1.337891e+00	1.309219e+00	1.311533e+00	1.305259e+00	1.263463e+00	1.266544e+00	1.255510e+00	1.249803e+00	1.255956e+00	1.223593e+00	1.456291e+00	1.488506e+00	8.167628e-01	1.095585e+00	1.251568e+00	7.664655e-01	1.045726e+00	7.075183e-01	8.204885e-01	7.674750e-01	9.552315e-01	7.790405e-01	1.414369e+00	1.403323e+00	1.410879e+00	1.252504e+00	1.268282e+00	1.276681e+00	1.236922e+00	1.118847e+00	1.146731e+00	1.093523e+00	1.107054e+00	1.194719e+00	1.146383e+00	1.098373e+00	1.061680e+00	1.382865e+00	7.290363e-01	9.332454e-01	1.375374e+00	1.374149e+00	7.423922e-01	1.299556e+00	1.198593