# vtk DataFile Version 3.0
vtk output
ASCII
DATASET UNSTRUCTURED_GRID
POINTS 198 double
0.000000e+00	0.000000e+00	0.0	3.159926e-03	3.874902e-03	0.0	6.482595e-03	7.846076e-03	0.0	1.091460e-02	1.089341e-02	0.0	1.555013e-02	1.397926e-02	0.0	2.079570e-02	1.639891e-02	0.0	2.625172e-02	1.884823e-02	0.0	3.208618e-02	2.092776e-02	0.0	3.814481e-02	2.301428e-02	0.0	4.450819e-02	2.487339e-02	0.0	5.111850e-02	2.667464e-02	0.0	5.801332e-02	2.829108e-02	0.0	6.517863e-02	2.974528e-02	0.0	7.260849e-02	3.108364e-02	0.0	8.031539e-02	3.220406e-02	0.0	8.826306e-02	3.335285e-02	0.0	9.644447e-02	3.459390e-02	0.0	1.048314e-01	3.609243e-02	0.0	1.134330e-01	3.780725e-02	0.0	1.222153e-01	3.985782e-02	0.0	1.312035e-01	4.213750e-02	0.0	1.404448e-01	4.444403e-02	0.0	1.499449e-01	4.675462e-02	0.0	1.596896e-01	4.912471e-02	0.0	1.698241e-01	5.083205e-02	0.0	1.802166e-01	5.251966e-02	0.0	1.909049e-01	5.369151e-02	0.0	2.019206e-01	5.398194e-02	0.0	2.131768e-01	5.427871e-02	0.0	2.246302e-01	5.342680e-02	0.0	2.363063e-01	5.232504e-02	0.0	2.482030e-01	5.115723e-02	0.0	2.603064e-01	4.984996e-02	0.0	2.726215e-01	4.851984e-02	0.0	2.851919e-01	4.796843e-02	0.0	2.979782e-01	4.771116e-02	0.0	3.109296e-01	4.785478e-02	0.0	3.239685e-01	4.960002e-02	0.0	3.371740e-01	5.136756e-02	0.0	3.503951e-01	5.393849e-02	0.0	3.636893e-01	5.692686e-02	0.0	3.771151e-01	5.993889e-02	0.0	3.906695e-01	6.292980e-02	0.0	4.043293e-01	6.594395e-02	0.0	4.182004e-01	6.829755e-02	0.0	4.322460e-01	7.012010e-02	0.0	4.463635e-01	7.187142e-02	0.0	4.606420e-01	7.217203e-02	0.0	4.749578e-01	7.247342e-02	0.0	4.892903e-01	7.225187e-02	0.0	5.036259e-01	7.163707e-02	0.0	5.179529e-01	7.099987e-02	0.0	5.322454e-01	7.012980e-02	0.0	5.465007e-01	6.926199e-02	0.0	5.607093e-01	6.848965e-02	0.0	5.748550e-01	6.778215e-02	0.0	5.889194e-01	6.706275e-02	0.0	6.028822e-01	6.621696e-02	0.0	6.167373e-01	6.537769e-02	0.0	6.304430e-01	6.419611e-02	0.0	6.439971e-01	6.279874e-02	0.0	6.573956e-01	6.133938e-02	0.0	6.705176e-01	5.903224e-02	0.0	6.834741e-01	5.675421e-02	0.0	6.961769e-01	5.412792e-02	0.0	7.086243e-01	5.119219e-02	0.0	7.208801e-01	4.830168e-02	0.0	7.328883e-01	4.526373e-02	0.0	7.446870e-01	4.226462e-02	0.0	7.563035e-01	3.944915e-02	0.0	7.677493e-01	3.689184e-02	0.0	7.789691e-01	3.438503e-02	0.0	7.900831e-01	3.258405e-02	0.0	8.009666e-01	3.085806e-02	0.0	8.116518e-01	2.948597e-02	0.0	8.221149e-01	2.831363e-02	0.0	8.323359e-01	2.722026e-02	0.0	8.423151e-01	2.622335e-02	0.0	8.520396e-01	2.521499e-02	0.0	8.614936e-01	2.405477e-02	0.0	8.706974e-01	2.292525e-02	0.0	8.796268e-01	2.164406e-02	0.0	8.883024e-01	2.035468e-02	0.0	8.967241e-01	1.905329e-02	0.0	9.048868e-01	1.769488e-02	0.0	9.128083e-01	1.637663e-02	0.0	9.204804e-01	1.503654e-02	0.0	9.279150e-01	1.372473e-02	0.0	9.351152e-01	1.244065e-02	0.0	9.420828e-01	1.117407e-02	0.0	9.488258e-01	9.947850e-03	0.0	9.553426e-01	8.731701e-03	0.0	9.616434e-01	7.555896e-03	0.0	9.677280e-01	6.397090e-03	0.0	9.736046e-01	5.273794e-03	0.0	9.792745e-01	4.167878e-03	0.0	9.847449e-01	3.092187e-03	0.0	9.900194e-01	2.039219e-03	0.0	9.951021e-01	1.005200e-03	0.0	1.000000e+00	0.000000e+00	0.0	9.950053e-01	2.287175e-04	0.0	9.898208e-01	4.249809e-04	0.0	9.844413e-01	5.700618e-04	0.0	9.788626e-01	6.704181e-04	0.0	9.730802e-01	7.462619e-04	0.0	9.670891e-01	7.641785e-04	0.0	9.608853e-01	7.591040e-04	0.0	9.544641e-01	6.887873e-04	0.0	9.478212e-01	6.019740e-04	0.0	9.409535e-01	4.200335e-04	0.0	9.338554e-01	2.319857e-04	0.0	9.265262e-01	-6.278702e-05	0.0	9.189597e-01	-3.894280e-04	0.0	9.111545e-01	-7.778349e-04	0.0	9.031090e-01	-1.262549e-03	0.0	8.948164e-01	-1.762155e-03	0.0	8.862837e-01	-2.413743e-03	0.0	8.775007e-01	-3.100863e-03	0.0	8.684719e-01	-3.888331e-03	0.0	8.591984e-01	-4.801967e-03	0.0	8.496732e-01	-5.763847e-03	0.0	8.399252e-01	-7.028645e-03	0.0	8.299240e-01	-8.326298e-03	0.0	8.197469e-01	-1.013646e-02	0.0	8.093382e-01	-1.209957e-02	0.0	7.987876e-01	-1.456608e-02	0.0	7.880773e-01	-1.744598e-02	0.0	7.771874e-01	-2.057101e-02	0.0	7.662682e-01	-2.441215e-02	0.0	7.551269e-01	-2.833139e-02	0.0	7.438102e-01	-3.244160e-02	0.0	7.323006e-01	-3.667572e-02	0.0	7.205651e-01	-4.091627e-02	0.0	7.084056e-01	-4.454372e-02	0.0	6.960542e-01	-4.822846e-02	0.0	6.833278e-01	-5.111717e-02	0.0	6.702209e-01	-5.313998e-02	0.0	6.569449e-01	-5.518887e-02	0.0	6.433592e-01	-5.526837e-02	0.0	6.296179e-01	-5.525084e-02	0.0	6.157574e-01	-5.477478e-02	0.0	6.017937e-01	-5.376031e-02	0.0	5.877203e-01	-5.273788e-02	0.0	5.735364e-01	-5.193412e-02	0.0	5.592702e-01	-5.113087e-02	0.0	5.449279e-01	-5.093681e-02	0.0	5.305243e-01	-5.134397e-02	0.0	5.160851e-01	-5.179015e-02	0.0	5.016751e-01	-5.310708e-02	0.0	4.872574e-01	-5.442471e-02	0.0	4.728572e-01	-5.584242e-02	0.0	4.584871e-01	-5.733285e-02	0.0	4.441500e-01	-5.876519e-02	0.0	4.298253e-01	-5.971928e-02	0.0	4.155681e-01	-6.066887e-02	0.0	4.013745e-01	-6.118366e-02	0.0	3.872665e-01	-6.145181e-02	0.0	3.732681e-01	-6.167966e-02	0.0	3.593908e-01	-6.172361e-02	0.0	3.456495e-01	-6.176713e-02	0.0	3.320589e-01	-6.199675e-02	0.0	3.186292e-01	-6.230235e-02	0.0	3.053763e-01	-6.273326e-02	0.0	2.923249e-01	-6.360673e-02	0.0	2.794643e-01	-6.446743e-02	0.0	2.668218e-01	-6.554352e-02	0.0	2.543940e-01	-6.668608e-02	0.0	2.421804e-01	-6.779297e-02	0.0	2.301844e-01	-6.882504e-02	0.0	2.184174e-01	-6.983742e-02	0.0	2.068631e-01	-7.050048e-02	0.0	1.955399e-01	-7.101810e-02	0.0	1.844591e-01	-7.136639e-02	0.0	1.736194e-01	-7.110744e-02	0.0	1.630302e-01	-7.085448e-02	0.0	1.527450e-01	-6.990011e-02	0.0	1.427335e-01	-6.868472e-02	0.0	1.330247e-01	-6.723712e-02	0.0	1.237465e-01	-6.487580e-02	0.0	1.147159e-01	-6.257752e-02	0.0	1.061957e-01	-5.953972e-02	0.0	9.803073e-02	-5.623126e-02	0.0	9.013400e-02	-5.294221e-02	0.0	8.275302e-02	-4.912931e-02	0.0	7.559204e-02	-4.543006e-02	0.0	6.872345e-02	-4.170502e-02	0.0	6.213719e-02	-3.796617e-02	0.0	5.575605e-02	-3.434871e-02	0.0	4.951209e-02	-3.096752e-02	0.0	4.347092e-02	-2.769614e-02	0.0	3.754880e-02	-2.468630e-02	0.0	3.180687e-02	-2.181119e-02	0.0	2.625279e-02	-1.904689e-02	0.0	2.090962e-02	-1.633895e-02	0.0	1.585654e-02	-1.352664e-02	0.0	1.112117e-02	-1.058526e-02	0.0	6.686527e-03	-7.540758e-03	0.0	2.805777e-03	-4.097322e-03	0.0	
CELLS 198	594
2	30	31	2	31	32	2	32	33	2	33	34	2	34	35	2	35	36	2	36	37	2	37	38	2	38	39	2	39	40	2	40	41	2	41	42	2	42	43	2	43	44	2	44	45	2	45	46	2	46	47	2	47	48	2	48	49	2	49	50	2	50	51	2	51	52	2	52	53	2	53	54	2	54	55	2	55	56	2	56	57	2	57	58	2	58	59	2	59	60	2	60	61	2	61	62	2	62	63	2	63	64	2	64	65	2	65	66	2	66	67	2	67	68	2	68	69	2	69	70	2	70	71	2	71	72	2	72	73	2	73	74	2	74	75	2	75	76	2	76	77	2	77	78	2	78	79	2	79	80	2	80	81	2	81	82	2	82	83	2	83	84	2	84	85	2	85	86	2	86	87	2	87	88	2	88	89	2	89	90	2	90	91	2	91	92	2	92	93	2	93	94	2	94	95	2	95	96	2	0	1	2	1	2	2	2	3	2	3	4	2	4	5	2	5	6	2	6	7	2	7	8	2	8	9	2	9	10	2	10	11	2	11	12	2	12	13	2	13	14	2	14	15	2	15	16	2	16	17	2	17	18	2	18	19	2	19	20	2	20	21	2	21	22	2	22	23	2	23	24	2	24	25	2	25	26	2	26	27	2	27	28	2	28	29	2	29	30	2	165	166	2	166	167	2	167	168	2	168	169	2	169	170	2	170	171	2	171	172	2	172	173	2	173	174	2	174	175	2	175	176	2	176	177	2	177	178	2	178	179	2	179	180	2	180	181	2	181	182	2	182	183	2	183	184	2	184	185	2	185	186	2	186	187	2	187	188	2	188	189	2	189	190	2	190	191	2	191	192	2	192	193	2	193	194	2	194	195	2	195	196	2	196	197	2	197	0	2	96	97	2	97	98	2	98	99	2	99	100	2	100	101	2	101	102	2	102	103	2	103	104	2	104	105	2	105	106	2	106	107	2	107	108	2	108	109	2	109	110	2	110	111	2	111	112	2	112	113	2	113	114	2	114	115	2	115	116	2	116	117	2	117	118	2	118	119	2	119	120	2	120	121	2	121	122	2	122	123	2	123	124	2	124	125	2	125	126	2	126	127	2	127	128	2	128	129	2	129	130	2	130	131	2	131	132	2	132	133	2	133	134	2	134	135	2	135	136	2	136	137	2	137	138	2	138	139	2	139	140	2	140	141	2	141	142	2	142	143	2	143	144	2	144	145	2	145	146	2	146	147	2	147	148	2	148	149	2	149	150	2	150	151	2	151	152	2	152	153	2	153	154	2	154	155	2	155	156	2	156	157	2	157	158	2	158	159	2	159	160	2	160	161	2	161	162	2	162	163	2	163	164	2	164	165	
CELL_TYPES 198
3	3	3	3	3	3	3	3	3	3	3	3	3	3	3	3	3	3	3	3	3	3	3	3	3	3	3	3	3	3	3	3	3	3	3	3	3	3	3	3	3	3	3	3	3	3	3	3	3	3	3	3	3	3	3	3	3	3	3	3	3	3	3	3	3	3	3	3	3	3	3	3	3	3	3	3	3	3	3	3	3	3	3	3	3	3	3	3	3	3	3	3	3	3	3	3	3	3	3	3	3	3	3	3	3	3	3	3	3	3	3	3	3	3	3	3	3	3	3	3	3	3	3	3	3	3	3	3	3	3	3	3	3	3	3	3	3	3	3	3	3	3	3	3	3	3	3	3	3	3	3	3	3	3	3	3	3	3	3	3	3	3	3	3	3	3	3	3	3	3	3	3	3	3	3	3	3	3	3	3	3	3	3	3	3	3	3	3	3	3	3	3	3	3	3	3	3	3	
POINT_DATA 198

SCALARS Density double 1
LOOKUP_TABLE default
1.500136e+00	1.160126e+00	1.117126e+00	1.036284e+00	9.951064e-01	9.530881e-01	9.424961e-01	9.310476e-01	9.302476e-01	9.123608e-01	8.917008e-01	8.724716e-01	8.909756e-01	9.790316e-01	1.097401e+00	1.165696e+00	1.196050e+00	1.208329e+00	1.208158e+00	1.194090e+00	1.156979e+00	1.111060e+00	1.070611e+00	9.890045e-01	9.182899e-01	8.683857e-01	7.758529e-01	7.173473e-01	6.549921e-01	5.864066e-01	5.683195e-01	6.210259e-01	9.095029e-01	1.224791e+00	1.235286e+00	1.247278e+00	1.257746e+00	1.245982e+00	1.222634e+00	1.211568e+00	1.173870e+00	1.132629e+00	1.093654e+00	1.034033e+00	9.687180e-01	9.269563e-01	8.462622e-01	7.836980e-01	7.637627e-01	7.294504e-01	7.165396e-01	7.141157e-01	7.109077e-01	7.190204e-01	7.316238e-01	7.409353e-01	7.394453e-01	7.340667e-01	7.115135e-01	6.822770e-01	6.867122e-01	7.509418e-01	9.686749e-01	1.075689e+00	1.094359e+00	1.122092e+00	1.148550e+00	1.169310e+00	1.191309e+00	1.209981e+00	1.218667e+00	1.232435e+00	1.236759e+00	1.232758e+00	1.234673e+00	1.228410e+00	1.223083e+00	1.219221e+00	1.212400e+00	1.212211e+00	1.212632e+00	1.214047e+00	1.219476e+00	1.221908e+00	1.227305e+00	1.232286e+00	1.236737e+00	1.242004e+00	1.246058e+00	1.250630e+00	1.254766e+00	1.259093e+00	1.263729e+00	1.268181e+00	1.273033e+00	1.278078e+00	1.283106e+00	1.294229e+00	1.281749e+00	1.307217e+00	1.410450e+00	1.390401e+00	1.390439e+00	1.394711e+00	1.395172e+00	1.397385e+00	1.398366e+00	1.400677e+00	1.401558e+00	1.402969e+00	1.404509e+00	1.404117e+00	1.406619e+00	1.406037e+00	1.408272e+00	1.409791e+00	1.410056e+00	1.413020e+00	1.413330e+00	1.418375e+00	1.419121e+00	1.424390e+00	1.426512e+00	1.425381e+00	1.427164e+00	1.415841e+00	1.413010e+00	1.396457e+00	1.368411e+00	1.345734e+00	1.309688e+00	1.255316e+00	1.216857e+00	1.151258e+00	9.961563e-01	8.876116e-01	8.574088e-01	9.301301e-01	1.048130e+00	1.097415e+00	1.164599e+00	1.230829e+00	1.268491e+00	1.305787e+00	1.337404e+00	1.336689e+00	1.344328e+00	1.339900e+00	1.314939e+00	1.300033e+00	1.277697e+00	1.244933e+00	1.227841e+00	1.213907e+00	1.203076e+00	1.215164e+00	1.224216e+00	1.237218e+00	1.259339e+00	1.272387e+00	1.279607e+00	1.294002e+00	1.292095e+00	1.282375e+00	1.274222e+00	1.253152e+00	1.230847e+00	1.209270e+00	1.174149e+00	1.148145e+00	1.120744e+00	1.016724e+00	9.172222e-01	8.770159e-01	8.886444e-01	9.268002e-01	9.399244e-01	9.991271e-01	1.053453e+00	1.105928e+00	1.193770e+00	1.229119e+00	1.282511e+00	1.345341e+00	1.379960e+00	1.418780e+00	1.455298e+00	1.478603e+00	1.500246e+00	1.517975e+00	1.529841e+00	1.542676e+00	1.554239e+00	1.569179e+00	1.587885e+00	1.616665e+00	1.619421e+00	1.678841e+00	
VECTORS Momentum double
1.528278e+01	2.232593e+02	0.0	1.650841e+02	1.979107e+02	0.0	2.086507e+02	1.884956e+02	0.0	2.432468e+02	1.642359e+02	0.0	2.646929e+02	1.474033e+02	0.0	2.774431e+02	1.256740e+02	0.0	2.853545e+02	1.139511e+02	0.0	2.898116e+02	1.011144e+02	0.0	2.949569e+02	9.366175e+01	0.0	2.971197e+02	8.392121e+01	0.0	2.998789e+02	7.593580e+01	0.0	3.015688e+02	6.560057e+01	0.0	3.021328e+02	5.695532e+01	0.0	3.071818e+02	4.933465e+01	0.0	3.050832e+02	4.453480e+01	0.0	3.014105e+02	4.467620e+01	0.0	2.970320e+02	4.916298e+01	0.0	2.944010e+02	5.563001e+01	0.0	2.936970e+02	6.346706e+01	0.0	2.966123e+02	7.251233e+01	0.0	3.011151e+02	7.603968e+01	0.0	3.051856e+02	7.493973e+01	0.0	3.127784e+02	7.644520e+01	0.0	3.145047e+02	6.476488e+01	0.0	3.127610e+02	5.128590e+01	0.0	3.129882e+02	4.321169e+01	0.0	3.001440e+02	2.121865e+01	0.0	2.914163e+02	7.559991e+00	0.0	2.790793e+02	-6.071835e+00	0.0	2.614397e+02	-2.118420e+01	0.0	2.513216e+02	-2.447937e+01	0.0	2.565796e+02	-2.790374e+01	0.0	2.587828e+02	-2.773422e+01	0.0	2.483281e+02	-1.544449e+01	0.0	2.380333e+02	-4.939841e+00	0.0	2.246698e+02	1.380133e-02	0.0	2.176858e+02	1.612973e+01	0.0	2.199787e+02	2.959443e+01	0.0	2.234174e+02	3.648123e+01	0.0	2.307315e+02	4.847876e+01	0.0	2.414303e+02	5.430241e+01	0.0	2.513892e+02	5.596592e+01	0.0	2.624387e+02	5.825670e+01	0.0	2.733182e+02	5.408088e+01	0.0	2.786721e+02	4.199634e+01	0.0	2.841123e+02	3.635357e+01	0.0	2.839530e+02	2.088983e+01	0.0	2.782821e+02	5.544414e+00	0.0	2.783961e+02	7.057580e-01	0.0	2.733782e+02	-8.209550e+00	0.0	2.715514e+02	-1.218902e+01	0.0	2.719580e+02	-1.444160e+01	0.0	2.713937e+02	-1.662178e+01	0.0	2.730637e+02	-1.593943e+01	0.0	2.747928e+02	-1.439133e+01	0.0	2.763065e+02	-1.381171e+01	0.0	2.756976e+02	-1.531635e+01	0.0	2.749112e+02	-1.652781e+01	0.0	2.717157e+02	-1.977496e+01	0.0	2.671513e+02	-2.536909e+01	0.0	2.656264e+02	-2.892397e+01	0.0	2.627059e+02	-3.687016e+01	0.0	2.555665e+02	-4.256460e+01	0.0	2.523890e+02	-4.721830e+01	0.0	2.462800e+02	-5.437296e+01	0.0	2.386529e+02	-5.622409e+01	0.0	2.311701e+02	-5.632990e+01	0.0	2.223444e+02	-5.631883e+01	0.0	2.140511e+02	-5.318727e+01	0.0	2.093534e+02	-4.862332e+01	0.0	2.030199e+02	-4.537520e+01	0.0	1.988937e+02	-3.833152e+01	0.0	1.993541e+02	-3.190931e+01	0.0	1.991103e+02	-2.867324e+01	0.0	2.010489e+02	-2.410722e+01	0.0	2.038251e+02	-2.229036e+01	0.0	2.062103e+02	-2.136758e+01	0.0	2.093322e+02	-2.118870e+01	0.0	2.106913e+02	-2.378389e+01	0.0	2.108747e+02	-2.586837e+01	0.0	2.104554e+02	-2.795888e+01	0.0	2.087539e+02	-3.046910e+01	0.0	2.070609e+02	-3.136251e+01	0.0	2.049046e+02	-3.290947e+01	0.0	2.024884e+02	-3.369974e+01	0.0	2.001663e+02	-3.410986e+01	0.0	1.976214e+02	-3.466672e+01	0.0	1.949128e+02	-3.454949e+01	0.0	1.920429e+02	-3.455711e+01	0.0	1.893113e+02	-3.440348e+01	0.0	1.865986e+02	-3.436329e+01	0.0	1.836921e+02	-3.429504e+01	0.0	1.808257e+02	-3.409282e+01	0.0	1.777055e+02	-3.390098e+01	0.0	1.742807e+02	-3.362035e+01	0.0	1.704454e+02	-3.337243e+01	0.0	1.657996e+02	-3.285283e+01	0.0	1.613486e+02	-3.206407e+01	0.0	1.469412e+02	-3.277466e+01	0.0	1.814012e+02	-2.175692e+00	0.0	2.575111e+02	-1.195736e+01	0.0	2.511394e+02	-8.428118e+00	0.0	2.488227e+02	-5.493404e+00	0.0	2.498479e+02	-4.046399e+00	0.0	2.483640e+02	-1.953261e+00	0.0	2.478493e+02	-2.829844e-01	0.0	2.471135e+02	1.496978e+00	0.0	2.463954e+02	2.960164e+00	0.0	2.455881e+02	4.883062e+00	0.0	2.449822e+02	6.481708e+00	0.0	2.441469e+02	8.164741e+00	0.0	2.436507e+02	1.018407e+01	0.0	2.431392e+02	1.129029e+01	0.0	2.421234e+02	1.336713e+01	0.0	2.415319e+02	1.453498e+01	0.0	2.405771e+02	1.645617e+01	0.0	2.399338e+02	1.853126e+01	0.0	2.390031e+02	1.972926e+01	0.0	2.377345e+02	2.210956e+01	0.0	2.359542e+02	2.350552e+01	0.0	2.333378e+02	2.702894e+01	0.0	2.314094e+02	3.003289e+01	0.0	2.285407e+02	3.523476e+01	0.0	2.272894e+02	4.167158e+01	0.0	2.267838e+02	4.787133e+01	0.0	2.264959e+02	5.708441e+01	0.0	2.293048e+02	6.363678e+01	0.0	2.310066e+02	7.375519e+01	0.0	2.385687e+02	8.395798e+01	0.0	2.492976e+02	8.897626e+01	0.0	2.575073e+02	9.395225e+01	0.0	2.699262e+02	9.842141e+01	0.0	2.851630e+02	9.355434e+01	0.0	2.919209e+02	8.617436e+01	0.0	2.992204e+02	7.885447e+01	0.0	3.104945e+02	5.921388e+01	0.0	3.116178e+02	4.768492e+01	0.0	3.286913e+02	2.514826e+01	0.0	3.354212e+02	-1.129942e-01	0.0	3.295510e+02	-5.886803e+00	0.0	3.271929e+02	-1.774962e+01	0.0	3.196175e+02	-2.335013e+01	0.0	3.114293e+02	-2.018641e+01	0.0	3.049317e+02	-1.750721e+01	0.0	2.991074e+02	-1.075384e+01	0.0	2.949079e+02	2.296543e+00	0.0	2.954544e+02	8.647284e+00	0.0	2.948041e+02	1.812262e+01	0.0	2.979162e+02	2.716921e+01	0.0	3.035521e+02	2.867695e+01	0.0	3.073242e+02	3.105417e+01	0.0	3.120942e+02	3.186513e+01	0.0	3.181501e+02	2.632357e+01	0.0	3.202803e+02	2.135167e+01	0.0	3.212374e+02	1.663856e+01	0.0	3.220461e+02	8.801513e+00	0.0	3.190460e+02	5.753863e+00	0.0	3.171088e+02	3.207073e+00	0.0	3.143840e+02	9.900611e-01	0.0	3.105769e+02	3.117499e+00	0.0	3.085199e+02	6.216014e+00	0.0	3.071697e+02	8.526548e+00	0.0	3.049945e+02	1.516903e+01	0.0	3.062445e+02	2.049478e+01	0.0	3.090320e+02	2.345324e+01	0.0	3.106812e+02	2.761204e+01	0.0	3.147505e+02	2.876100e+01	0.0	3.187486e+02	2.805760e+01	0.0	3.215619e+02	2.770232e+01	0.0	3.247055e+02	2.311908e+01	0.0	3.272594e+02	1.604430e+01	0.0	3.258708e+02	1.248438e+01	0.0	3.254753e+02	1.669663e+00	0.0	3.220459e+02	-7.499377e+00	0.0	3.242300e+02	-1.972969e+01	0.0	3.279436e+02	-3.555776e+01	0.0	3.252879e+02	-4.412144e+01	0.0	3.283928e+02	-6.622978e+01	0.0	3.228440e+02	-8.222765e+01	0.0	3.167349e+02	-9.731189e+01	0.0	3.091999e+02	-1.188786e+02	0.0	2.954428e+02	-1.210358e+02	0.0	2.833201e+02	-1.319241e+02	0.0	2.661123e+02	-1.378536e+02	0.0	2.516040e+02	-1.330983e+02	0.0	2.379452e+02	-1.321820e+02	0.0	2.237127e+02	-1.270822e+02	0.0	2.119772e+02	-1.173863e+02	0.0	2.020868e+02	-1.094647e+02	0.0	1.931369e+02	-1.014679e+02	0.0	1.854667e+02	-9.351234e+01	0.0	1.762891e+02	-8.796456e+01	0.0	1.651606e+02	-8.285602e+01	0.0	1.483845e+02	-7.872977e+01	0.0	1.242244e+02	-7.264411e+01	0.0	8.884617e+01	-5.746551e+01	0.0	3.997570e+01	-2.851903e+01	0.0	-3.448631e+01	4.050652e+01	0.0	
SCALARS Energy double 1
LOOKUP_TABLE default
3.300894e+05	2.597647e+05	2.523716e+05	2.366045e+05	2.289768e+05	2.205923e+05	2.187007e+05	2.163636e+05	2.164417e+05	2.127808e+05	2.087057e+05	2.048004e+05	2.083740e+05	2.264374e+05	2.503576e+05	2.641717e+05	2.702028e+05	2.726518e+05	2.726777e+05	2.701058e+05	2.628126e+05	2.536428e+05	2.460072e+05	2.293696e+05	2.147678e+05	2.047414e+05	1.849224e+05	1.724880e+05	1.590372e+05	1.439291e+05	1.392738e+05	1.499990e+05	2.078751e+05	2.728296e+05	2.744403e+05	2.762669e+05	2.781676e+05	2.758530e+05	2.711291e+05	2.692957e+05	2.620186e+05	2.539887e+05	2.466104e+05	2.349657e+05	2.217892e+05	2.136641e+05	1.972057e+05	1.840753e+05	1.801269e+05	1.728387e+05	1.701205e+05	1.697011e+05	1.690243e+05	1.707923e+05	1.734452e+05	1.754364e+05	1.750865e+05	1.739513e+05	1.692012e+05	1.630374e+05	1.637730e+05	1.762375e+05	2.199670e+05	2.420305e+05	2.456272e+05	2.509912e+05	2.561167e+05	2.600048e+05	2.641816e+05	2.678511e+05	2.693540e+05	2.720225e+05	2.729126e+05	2.720262e+05	2.724960e+05	2.712830e+05	2.702585e+05	2.695882e+05	2.682191e+05	2.682002e+05	2.682822e+05	2.685160e+05	2.695941e+05	2.700192e+05	2.710590e+05	2.720141e+05	2.728495e+05	2.738490e+05	2.745861e+05	2.754414e+05	2.762080e+05	2.770096e+05	2.778809e+05	2.787054e+05	2.796062e+05	2.805365e+05	2.814360e+05	2.836545e+05	2.804872e+05	2.870806e+05	3.126021e+05	3.080108e+05	3.078957e+05	3.088536e+05	3.088744e+05	3.093178e+05	3.094892e+05	3.099447e+05	3.100929e+05	3.103643e+05	3.106525e+05	3.105483e+05	3.110571e+05	3.108887e+05	3.113381e+05	3.116205e+05	3.116529e+05	3.122430e+05	3.122579e+05	3.132529e+05	3.133059e+05	3.143553e+05	3.147093e+05	3.144608e+05	3.148734e+05	3.125453e+05	3.121516e+05	3.088522e+05	3.034320e+05	2.992746e+05	2.922157e+05	2.816227e+05	2.744626e+05	2.611585e+05	2.297586e+05	2.085686e+05	2.024964e+05	2.183991e+05	2.426325e+05	2.521282e+05	2.657265e+05	2.788384e+05	2.860545e+05	2.933801e+05	2.995991e+05	2.991708e+05	3.008161e+05	2.998727e+05	2.948811e+05	2.921418e+05	2.877502e+05	2.812705e+05	2.781278e+05	2.753742e+05	2.731863e+05	2.757233e+05	2.773664e+05	2.799161e+05	2.843131e+05	2.867616e+05	2.881273e+05	2.910428e+05	2.905148e+05	2.885913e+05	2.870972e+05	2.828496e+05	2.785165e+05	2.743387e+05	2.673008e+05	2.621726e+05	2.567296e+05	2.354301e+05	2.154091e+05	2.070933e+05	2.096743e+05	2.177587e+05	2.202107e+05	2.327180e+05	2.435037e+05	2.540144e+05	2.720139e+05	2.783952e+05	2.890061e+05	3.012891e+05	3.076465e+05	3.151377e+05	3.220951e+05	3.263236e+05	3.303741e+05	3.336684e+05	3.357910e+05	3.381402e+05	3.401916e+05	3.428619e+05	3.462129e+05	3.515803e+05	3.514015e+05	3.643155e+05	
SCALARS Pressure double 1
LOOKUP_TABLE default
1.253592e+05	9.245514e+04	8.679344e+04	7.801654e+04	7.314243e+04	6.876996e+04	6.744579e+04	6.630699e+04	6.598602e+04	6.421644e+04	6.201911e+04	6.008628e+04	6.213058e+04	7.080143e+04	8.281863e+04	8.973926e+04	9.292372e+04	9.420273e+04	9.412505e+04	9.242593e+04	8.845190e+04	8.368055e+04	7.903560e+04	7.089704e+04	6.402956e+04	5.890474e+04	5.063034e+04	4.530218e+04	3.982159e+04	3.410686e+04	3.327080e+04	3.854746e+04	6.825449e+04	9.902312e+04	1.005986e+05	1.024129e+05	1.036904e+05	1.024331e+05	1.000687e+05	9.854222e+04	9.437402e+04	8.988315e+04	8.542828e+04	7.897173e+04	7.231837e+04	6.776440e+04	5.972373e+04	5.385931e+04	5.175523e+04	4.862605e+04	4.742444e+04	4.710796e+04	4.681074e+04	4.750585e+04	4.867940e+04	4.951525e+04	4.941273e+04	4.891500e+04	4.681779e+04	4.410523e+04	4.471621e+04	5.175218e+04	7.412746e+04	8.455407e+04	8.662575e+04	8.968142e+04	9.258858e+04	9.500363e+04	9.750568e+04	9.950509e+04	1.006394e+05	1.021509e+05	1.025736e+05	1.022452e+05	1.023567e+05	1.016683e+05	1.010754e+05	1.005734e+05	9.987151e+04	9.983296e+04	9.987893e+04	1.000745e+05	1.006448e+05	1.009582e+05	1.015570e+05	1.021140e+05	1.026298e+05	1.032297e+05	1.037232e+05	1.042560e+05	1.047451e+05	1.052572e+05	1.057936e+05	1.063207e+05	1.068930e+05	1.074942e+05	1.081213e+05	1.092799e+05	1.086582e+05	1.097969e+05	1.156176e+05	1.141218e+05	1.142484e+05	1.145875e+05	1.147066e+05	1.149351e+05	1.150616e+05	1.153079e+05	1.154271e+05	1.155841e+05	1.157634e+05	1.157486e+05	1.159992e+05	1.159912e+05	1.162202e+05	1.163990e+05	1.164471e+05	1.167569e+05	1.168362e+05	1.173728e+05	1.175461e+05	1.180964e+05	1.183868e+05	1.182920e+05	1.184208e+05	1.173112e+05	1.168451e+05	1.151190e+05	1.120242e+05	1.092968e+05	1.054122e+05	9.949750e+04	9.498126e+04	8.836906e+04	7.267938e+04	6.091465e+04	5.781719e+04	6.399295e+04	7.558479e+04	8.105229e+04	8.785161e+04	9.484732e+04	9.906564e+04	1.030634e+05	1.064434e+05	1.066547e+05	1.073284e+05	1.069275e+05	1.043408e+05	1.025546e+05	1.001650e+05	9.669719e+04	9.465084e+04	9.317385e+04	9.207358e+04	9.320665e+04	9.431166e+04	9.570930e+04	9.802839e+04	9.954139e+04	1.003677e+05	1.018227e+05	1.017717e+05	1.007441e+05	9.976289e+04	9.761337e+04	9.517469e+04	9.280164e+04	8.917649e+04	8.641001e+04	8.353381e+04	7.325239e+04	6.306411e+04	5.917303e+04	6.012247e+04	6.362240e+04	6.515500e+04	7.062194e+04	7.632989e+04	8.175084e+04	9.042066e+04	9.477124e+04	1.003707e+05	1.071630e+05	1.113163e+05	1.156109e+05	1.197406e+05	1.225876e+05	1.251079e+05	1.271962e+05	1.286763e+05	1.302238e+05	1.316831e+05	1.335485e+05	1.358768e+05	1.392471e+05	1.402628e+05	1.453890e+05	
SCALARS Temperature double 1
LOOKUP_TABLE default
2.911093e+02	2.776236e+02	2.706543e+02	2.622637e+02	2.560532e+02	2.513599e+02	2.492905e+02	2.480949e+02	2.471063e+02	2.451941e+02	2.422907e+02	2.399133e+02	2.429237e+02	2.519275e+02	2.629016e+02	2.681808e+02	2.706498e+02	2.715869e+02	2.714012e+02	2.696417e+02	2.663251e+02	2.623719e+02	2.571706e+02	2.497239e+02	2.429020e+02	2.363023e+02	2.273327e+02	2.199987e+02	2.117937e+02	2.026158e+02	2.039394e+02	2.162303e+02	2.614312e+02	2.816468e+02	2.836970e+02	2.860366e+02	2.871944e+02	2.863909e+02	2.851229e+02	2.833381e+02	2.800676e+02	2.764527e+02	2.721148e+02	2.660528e+02	2.600648e+02	2.546670e+02	2.458512e+02	2.394100e+02	2.360620e+02	2.322221e+02	2.305645e+02	2.298032e+02	2.293837e+02	2.301634e+02	2.317863e+02	2.328032e+02	2.327894e+02	2.321330e+02	2.292229e+02	2.251955e+02	2.268405e+02	2.400782e+02	2.665824e+02	2.738281e+02	2.757512e+02	2.784226e+02	2.808265e+02	2.830354e+02	2.851254e+02	2.864819e+02	2.876824e+02	2.887411e+02	2.889221e+02	2.889318e+02	2.887984e+02	2.883186e+02	2.878856e+02	2.873631e+02	2.869631e+02	2.868971e+02	2.869295e+02	2.871563e+02	2.875069e+02	2.878282e+02	2.882620e+02	2.886717e+02	2.890856e+02	2.895422e+02	2.899800e+02	2.904039e+02	2.908047e+02	2.912221e+02	2.916323e+02	2.920564e+02	2.925095e+02	2.929935e+02	2.935480e+02	2.941437e+02	2.953178e+02	2.925990e+02	2.855594e+02	2.859294e+02	2.862389e+02	2.862092e+02	2.864120e+02	2.865279e+02	2.866420e+02	2.867815e+02	2.868977e+02	2.869990e+02	2.871291e+02	2.871724e+02	2.872824e+02	2.873813e+02	2.874919e+02	2.876238e+02	2.876885e+02	2.878490e+02	2.879811e+02	2.882748e+02	2.885488e+02	2.888273e+02	2.891067e+02	2.891044e+02	2.890575e+02	2.886391e+02	2.880684e+02	2.871771e+02	2.851843e+02	2.829297e+02	2.803841e+02	2.761146e+02	2.719122e+02	2.673978e+02	2.541640e+02	2.390722e+02	2.349088e+02	2.396728e+02	2.512174e+02	2.572912e+02	2.627868e+02	2.684465e+02	2.720608e+02	2.749554e+02	2.772595e+02	2.779584e+02	2.781249e+02	2.780017e+02	2.764261e+02	2.748091e+02	2.730979e+02	2.705817e+02	2.685423e+02	2.673863e+02	2.666074e+02	2.672035e+02	2.683723e+02	2.694873e+02	2.711687e+02	2.725303e+02	2.732422e+02	2.741195e+02	2.743866e+02	2.736749e+02	2.727434e+02	2.713539e+02	2.693691e+02	2.673393e+02	2.645804e+02	2.621788e+02	2.596488e+02	2.509857e+02	2.395180e+02	2.350427e+02	2.356889e+02	2.391411e+02	2.414822e+02	2.462347e+02	2.524119e+02	2.575109e+02	2.638622e+02	2.686044e+02	2.726315e+02	2.774871e+02	2.810104e+02	2.838664e+02	2.866288e+02	2.888187e+02	2.905044e+02	2.919039e+02	2.930101e+02	2.940669e+02	2.951498e+02	2.964810e+02	2.980963e+02	3.000519e+02	3.017262e+02	3.016841e+02	
SCALARS Mach double 1
LOOKUP_TABLE default
4.361313e-01	6.650772e-01	7.631950e-01	8.723922e-01	9.491053e-01	1.005473e+00	1.029989e+00	1.044071e+00	1.055675e+00	1.078023e+00	1.111745e+00	1.139197e+00	1.104412e+00	9.987162e-01	8.643433e-01	7.962136e-01	7.632557e-01	7.505319e-01	7.530636e-01	7.768091e-01	8.204953e-01	8.710294e-01	9.355006e-01	1.024869e+00	1.104664e+00	1.180681e+00	1.283078e+00	1.366695e+00	1.460794e+00	1.567503e+00	1.551988e+00	1.409803e+00	8.828432e-01	6.038107e-01	5.708045e-01	5.312779e-01	5.108450e-01	5.250921e-01	5.469773e-01	5.766846e-01	6.283592e-01	6.821875e-01	7.433067e-01	8.240261e-01	8.998764e-01	9.658774e-01	1.070357e+00	1.144993e+00	1.183434e+00	1.227335e+00	1.246246e+00	1.254925e+00	1.259707e+00	1.250819e+00	1.232309e+00	1.220701e+00	1.220859e+00	1.228353e+00	1.261539e+00	1.307427e+00	1.288685e+00	1.137297e+00	8.171518e-01	7.195584e-01	6.923028e-01	6.532312e-01	6.166508e-01	5.816081e-01	5.469351e-01	5.234951e-01	5.020336e-01	4.824729e-01	4.790646e-01	4.788799e-01	4.813971e-01	4.903550e-01	4.983274e-01	5.078116e-01	5.149778e-01	5.161523e-01	5.155771e-01	5.115270e-01	5.052163e-01	4.993761e-01	4.914030e-01	4.837760e-01	4.759662e-01	4.672293e-01	4.587193e-01	4.503531e-01	4.423217e-01	4.338222e-01	4.253285e-01	4.163894e-01	4.066539e-01	3.960218e-01	3.835262e-01	3.696884e-01	3.409493e-01	4.047049e-01	5.395214e-01	5.331396e-01	5.277531e-01	5.282722e-01	5.247227e-01	5.226846e-01	5.206728e-01	5.182047e-01	5.161424e-01	5.143389e-01	5.120140e-01	5.112380e-01	5.092639e-01	5.074843e-01	5.054885e-01	5.030972e-01	5.019222e-01	4.989977e-01	4.965784e-01	4.911665e-01	4.860731e-01	4.808517e-01	4.755665e-01	4.756101e-01	4.765006e-01	4.843867e-01	4.949743e-01	5.111540e-01	5.459333e-01	5.833197e-01	6.234958e-01	6.870745e-01	7.460847e-01	8.065063e-01	9.719367e-01	1.148880e+00	1.196636e+00	1.141967e+00	1.007168e+00	9.340280e-01	8.657946e-01	7.927041e-01	7.440474e-01	7.036631e-01	6.704293e-01	6.601312e-01	6.576614e-01	6.594890e-01	6.825724e-01	7.057389e-01	7.297375e-01	7.641767e-01	7.914367e-01	8.066581e-01	8.168264e-01	8.090497e-01	7.936851e-01	7.788724e-01	7.562256e-01	7.375909e-01	7.277327e-01	7.154704e-01	7.117108e-01	7.217008e-01	7.346484e-01	7.537078e-01	7.804503e-01	8.072737e-01	8.429843e-01	8.734603e-01	9.050345e-01	1.009921e+00	1.143750e+00	1.195104e+00	1.187707e+00	1.148087e+00	1.121095e+00	1.065876e+00	9.929383e-01	9.313416e-01	8.521533e-01	7.906146e-01	7.361935e-01	6.670870e-01	6.137885e-01	5.680139e-01	5.209059e-01	4.810134e-01	4.483509e-01	4.196229e-01	3.956543e-01	3.714980e-01	3.451944e-01	3.101206e-01	2.618375e-01	1.884790e-01	8.708005e-02	9.100493e-02	
SCALARS Pressure_Coefficient double 1
LOOKUP_TABLE default