# vtk DataFile Version 3.0
vtk output
ASCII
DATASET UNSTRUCTURED_GRID
POINTS 1837 double
1.000000e+02	0.000000e+00	0.0	9.917900e+01	1.278772e+01	0.0	9.672949e+01	2.536546e+01	0.0	9.269168e+01	3.752670e+01	0.0	8.713187e+01	4.907176e+01	0.0	8.014136e+01	5.981105e+01	0.0	7.183494e+01	6.956826e+01	0.0	6.234898e+01	7.818315e+01	0.0	5.183926e+01	8.551428e+01	0.0	4.047833e+01	9.144126e+01	0.0	2.845276e+01	9.586679e+01	0.0	1.595999e+01	9.871818e+01	0.0	3.205158e+00	9.994862e+01	0.0	-9.602303e+00	9.953791e+01	0.0	-2.225209e+01	9.749279e+01	0.0	-3.453651e+01	9.384684e+01	0.0	-4.625383e+01	8.865993e+01	0.0	-5.721167e+01	8.201723e+01	0.0	-6.723009e+01	7.402780e+01	0.0	-7.614460e+01	6.482284e+01	0.0	-8.380881e+01	5.455349e+01	0.0	-9.009689e+01	4.338837e+01	0.0	-9.490557e+01	3.151082e+01	0.0	-9.815592e+01	1.911586e+01	0.0	-9.979454e+01	6.407022e+00	0.0	-9.979454e+01	-6.407022e+00	0.0	-9.815592e+01	-1.911586e+01	0.0	-9.490557e+01	-3.151082e+01	0.0	-9.009689e+01	-4.338837e+01	0.0	-8.380881e+01	-5.455349e+01	0.0	-7.614460e+01	-6.482284e+01	0.0	-6.723009e+01	-7.402780e+01	0.0	-5.721167e+01	-8.201723e+01	0.0	-4.625383e+01	-8.865993e+01	0.0	-3.453651e+01	-9.384684e+01	0.0	-2.225209e+01	-9.749279e+01	0.0	-9.602303e+00	-9.953791e+01	0.0	3.205158e+00	-9.994862e+01	0.0	1.595999e+01	-9.871818e+01	0.0	2.845276e+01	-9.586679e+01	0.0	4.047833e+01	-9.144126e+01	0.0	5.183926e+01	-8.551428e+01	0.0	6.234898e+01	-7.818315e+01	0.0	7.183494e+01	-6.956826e+01	0.0	8.014136e+01	-5.981105e+01	0.0	8.713187e+01	-4.907176e+01	0.0	9.269168e+01	-3.752670e+01	0.0	9.672949e+01	-2.536546e+01	0.0	9.917900e+01	-1.278772e+01	0.0	0.000000e+00	0.000000e+00	0.0	3.279096e-03	3.774590e-03	0.0	6.783216e-03	7.574773e-03	0.0	1.123731e-02	1.059023e-02	0.0	1.592089e-02	1.360034e-02	0.0	2.112771e-02	1.610369e-02	0.0	2.655076e-02	1.862728e-02	0.0	3.231858e-02	2.088775e-02	0.0	3.831940e-02	2.313548e-02	0.0	4.464849e-02	2.511285e-02	0.0	5.125834e-02	2.689299e-02	0.0	5.821320e-02	2.823746e-02	0.0	6.547475e-02	2.892463e-02	0.0	7.302261e-02	2.916853e-02	0.0	8.076594e-02	2.833732e-02	0.0	8.875156e-02	2.746489e-02	0.0	9.698752e-02	2.662961e-02	0.0	1.054925e-01	2.653808e-02	0.0	1.142598e-01	2.689873e-02	0.0	1.231211e-01	2.845182e-02	0.0	1.321701e-01	3.049705e-02	0.0	1.413669e-01	3.296444e-02	0.0	1.507045e-01	3.588022e-02	0.0	1.602827e-01	3.887113e-02	0.0	1.701543e-01	4.175893e-02	0.0	1.802663e-01	4.471358e-02	0.0	1.907023e-01	4.738151e-02	0.0	2.015240e-01	4.949664e-02	0.0	2.125822e-01	5.165799e-02	0.0	2.240105e-01	5.286178e-02	0.0	2.357091e-01	5.380034e-02	0.0	2.476417e-01	5.458038e-02	0.0	2.598228e-01	5.477366e-02	0.0	2.722172e-01	5.497032e-02	0.0	2.848182e-01	5.503706e-02	0.0	2.976169e-01	5.504643e-02	0.0	3.106033e-01	5.510973e-02	0.0	3.237651e-01	5.542740e-02	0.0	3.370953e-01	5.574912e-02	0.0	3.505705e-01	5.637335e-02	0.0	3.641854e-01	5.715492e-02	0.0	3.779279e-01	5.802291e-02	0.0	3.917609e-01	5.930409e-02	0.0	4.057016e-01	6.059524e-02	0.0	4.196993e-01	6.223034e-02	0.0	4.337583e-01	6.404557e-02	0.0	4.478786e-01	6.590371e-02	0.0	4.620256e-01	6.794979e-02	0.0	4.762095e-01	7.000121e-02	0.0	4.904475e-01	7.181343e-02	0.0	5.047097e-01	7.349903e-02	0.0	5.189775e-01	7.502653e-02	0.0	5.332919e-01	7.572599e-02	0.0	5.475691e-01	7.642363e-02	0.0	5.617957e-01	7.620813e-02	0.0	5.759565e-01	7.555872e-02	0.0	5.900231e-01	7.474106e-02	0.0	6.039368e-01	7.318554e-02	0.0	6.177430e-01	7.164203e-02	0.0	6.313986e-01	6.987038e-02	0.0	6.449071e-01	6.800117e-02	0.0	6.582739e-01	6.617282e-02	0.0	6.715009e-01	6.448661e-02	0.0	6.845609e-01	6.282169e-02	0.0	6.974536e-01	6.126071e-02	0.0	7.101658e-01	5.977441e-02	0.0	7.226800e-01	5.829524e-02	0.0	7.349681e-01	5.666409e-02	0.0	7.470448e-01	5.506100e-02	0.0	7.588508e-01	5.315227e-02	0.0	7.703983e-01	5.105689e-02	0.0	7.816875e-01	4.886293e-02	0.0	7.926188e-01	4.613126e-02	0.0	8.033163e-01	4.345800e-02	0.0	8.136817e-01	4.049284e-02	0.0	8.237949e-01	3.754233e-02	0.0	8.336704e-01	3.466775e-02	0.0	8.433062e-01	3.186786e-02	0.0	8.527244e-01	2.922931e-02	0.0	8.619741e-01	2.693615e-02	0.0	8.709787e-01	2.470374e-02	0.0	8.798032e-01	2.281426e-02	0.0	8.883954e-01	2.103359e-02	0.0	8.967560e-01	1.936780e-02	0.0	9.048982e-01	1.787311e-02	0.0	9.127994e-01	1.642265e-02	0.0	9.204690e-01	1.505280e-02	0.0	9.279046e-01	1.373279e-02	0.0	9.351057e-01	1.244203e-02	0.0	9.420744e-01	1.117108e-02	0.0	9.488182e-01	9.940672e-03	0.0	9.553355e-01	8.718856e-03	0.0	9.616364e-01	7.537603e-03	0.0	9.677210e-01	6.373599e-03	0.0	9.735975e-01	5.245283e-03	0.0	9.792674e-01	4.136383e-03	0.0	9.847379e-01	3.058858e-03	0.0	9.900128e-01	2.006182e-03	0.0	9.950965e-01	9.766988e-04	0.0	1.000000e+00	0.000000e+00	0.0	9.950047e-01	2.166122e-04	0.0	9.898203e-01	4.128117e-04	0.0	9.844409e-01	5.599685e-04	0.0	9.788624e-01	6.635588e-04	0.0	9.730803e-01	7.432504e-04	0.0	9.670896e-01	7.658501e-04	0.0	9.608861e-01	7.654120e-04	0.0	9.544654e-01	6.992671e-04	0.0	9.478230e-01	6.164945e-04	0.0	9.409559e-01	4.367133e-04	0.0	9.338585e-01	2.508993e-04	0.0	9.265302e-01	-4.564663e-05	0.0	9.189649e-01	-3.750912e-04	0.0	9.111617e-01	-7.800938e-04	0.0	9.031199e-01	-1.304718e-03	0.0	8.948312e-01	-1.845454e-03	0.0	8.863105e-01	-2.621709e-03	0.0	8.775410e-01	-3.447479e-03	0.0	8.685355e-01	-4.443121e-03	0.0	8.592987e-01	-5.659527e-03	0.0	8.498126e-01	-6.935301e-03	0.0	8.401323e-01	-8.630396e-03	0.0	8.302006e-01	-1.036951e-02	0.0	8.200713e-01	-1.242627e-02	0.0	8.097087e-01	-1.460765e-02	0.0	7.991284e-01	-1.696392e-02	0.0	7.883312e-01	-1.948583e-02	0.0	7.773015e-01	-2.208569e-02	0.0	7.660594e-01	-2.482921e-02	0.0	7.545888e-01	-2.762848e-02	0.0	7.428847e-01	-3.043920e-02	0.0	7.309603e-01	-3.328860e-02	0.0	7.188128e-01	-3.613338e-02	0.0	7.064205e-01	-3.884327e-02	0.0	6.938326e-01	-4.159592e-02	0.0	6.810013e-01	-4.410842e-02	0.0	6.679639e-01	-4.651624e-02	0.0	6.547474e-01	-4.888665e-02	0.0	6.412899e-01	-5.076979e-02	0.0	6.276856e-01	-5.267347e-02	0.0	6.138993e-01	-5.418062e-02	0.0	5.999586e-01	-5.542090e-02	0.0	5.859033e-01	-5.658544e-02	0.0	5.717086e-01	-5.703662e-02	0.0	5.574320e-01	-5.749041e-02	0.0	5.430865e-01	-5.741486e-02	0.0	5.286874e-01	-5.703104e-02	0.0	5.142534e-01	-5.657310e-02	0.0	4.998117e-01	-5.575381e-02	0.0	4.853623e-01	-5.493408e-02	0.0	4.709163e-01	-5.419616e-02	0.0	4.564912e-01	-5.349334e-02	0.0	4.420999e-01	-5.295112e-02	0.0	4.277486e-01	-5.289949e-02	0.0	4.134649e-01	-5.284810e-02	0.0	3.992741e-01	-5.333125e-02	0.0	3.851822e-01	-5.395591e-02	0.0	3.712032e-01	-5.463517e-02	0.0	3.573535e-01	-5.543341e-02	0.0	3.436395e-01	-5.622382e-02	0.0	3.300604e-01	-5.671908e-02	0.0	3.166388e-01	-5.715793e-02	0.0	3.033860e-01	-5.735492e-02	0.0	2.903110e-01	-5.715415e-02	0.0	2.774272e-01	-5.695632e-02	0.0	2.647464e-01	-5.662803e-02	0.0	2.522745e-01	-5.628872e-02	0.0	2.400176e-01	-5.615773e-02	0.0	2.279820e-01	-5.633074e-02	0.0	2.161760e-01	-5.650045e-02	0.0	2.046665e-01	-5.765843e-02	0.0	1.934021e-01	-5.889478e-02	0.0	1.824158e-01	-6.035822e-02	0.0	1.717280e-01	-6.216908e-02	0.0	1.612871e-01	-6.393809e-02	0.0	1.510287e-01	-6.519811e-02	0.0	1.410134e-01	-6.636208e-02	0.0	1.312373e-01	-6.676134e-02	0.0	1.216937e-01	-6.602370e-02	0.0	1.124048e-01	-6.530574e-02	0.0	1.038592e-01	-6.233706e-02	0.0	9.557702e-02	-5.933845e-02	0.0	8.779707e-02	-5.585403e-02	0.0	8.059556e-02	-5.171473e-02	0.0	7.360863e-02	-4.769877e-02	0.0	6.704942e-02	-4.345696e-02	0.0	6.074860e-02	-3.925660e-02	0.0	5.460752e-02	-3.524895e-02	0.0	4.852529e-02	-3.158627e-02	0.0	4.264053e-02	-2.804250e-02	0.0	3.670755e-02	-2.505624e-02	0.0	3.095804e-02	-2.219774e-02	0.0	2.530786e-02	-1.963651e-02	0.0	1.989549e-02	-1.707206e-02	0.0	1.474960e-02	-1.443395e-02	0.0	1.005521e-02	-1.143124e-02	0.0	5.783557e-03	-8.189570e-03	0.0	2.100026e-03	-4.537608e-03	0.0	9.910535e-02	-6.864736e-02	0.0	9.245168e-02	-6.696659e-02	0.0	8.743285e+01	2.708532e+01	0.0	8.233614e+01	3.602957e+01	0.0	7.795688e+01	2.659514e+01	0.0	7.771960e+01	-1.322066e+01	0.0	7.630833e+01	-2.245209e+01	0.0	8.699756e+01	-1.572447e+01	0.0	9.094942e+01	-4.857628e+00	0.0	2.985500e+01	3.419960e+01	0.0	2.702340e+01	2.341896e+01	0.0	3.775255e+01	2.693270e+01	0.0	7.359382e+01	3.392036e+01	0.0	6.709088e+01	-3.300197e+01	0.0	7.546256e+01	-4.276502e+01	0.0	8.133681e+01	-3.533798e+01	0.0	8.701928e+01	-2.729614e+01	0.0	5.537357e+01	2.222766e+01	0.0	4.840261e+01	2.969014e+01	0.0	4.516483e+01	1.960578e+01	0.0	5.660080e+01	-6.342656e+01	0.0	5.540490e+01	-5.317344e+01	0.0	4.790381e+01	-6.449315e+01	0.0	6.837565e+01	5.968807e+01	0.0	7.267274e+01	5.050416e+01	0.0	5.769892e+01	6.536834e+01	0.0	4.520428e+01	-7.404208e+01	0.0	5.447497e+01	-7.228333e+01	0.0	6.588397e+01	-4.569716e+01	0.0	5.113289e+01	7.518981e+01	0.0	2.688443e+01	5.306319e+01	0.0	2.055380e+01	6.324154e+01	0.0	1.620850e+01	5.070007e+01	0.0	6.283065e+01	-6.722255e+01	0.0	2.873064e+01	7.422928e+01	0.0	4.030635e+01	7.879046e+01	0.0	3.032450e+01	8.523147e+01	0.0	3.402553e+01	-6.638767e+01	0.0	2.564127e+01	-7.746426e+01	0.0	3.751302e+01	-8.054998e+01	0.0	1.121317e+01	4.039732e+01	0.0	2.403745e-01	4.208446e+01	0.0	4.041781e+00	3.008929e+01	0.0	1.735050e-01	5.025670e-02	0.0	1.819790e-01	5.238641e-02	0.0	1.771522e-01	6.047235e-02	0.0	4.624343e-01	8.238371e-02	0.0	4.764793e-01	8.537547e-02	0.0	4.254636e-01	7.111725e-02	0.0	4.375175e-01	7.612711e-02	0.0	4.229935e-01	8.127386e-02	0.0	4.480787e-01	8.448787e-02	0.0	4.357346e-01	9.220447e-02	0.0	9.448688e-01	4.822177e-02	0.0	9.286383e-01	4.499051e-02	0.0	9.404076e-01	3.502567e-02	0.0	9.130430e-01	4.642883e-02	0.0	9.008881e-01	4.251490e-02	0.0	9.097154e-01	3.643487e-02	0.0	9.090576e-01	2.880665e-02	0.0	9.027379e-01	2.436755e-02	0.0	9.104284e-01	2.209393e-02	0.0	9.170624e-01	1.980669e-02	0.0	9.239347e-01	2.029698e-02	0.0	9.164441e-01	2.510714e-02	0.0	9.311686e-01	1.735663e-02	0.0	8.818927e-01	-9.289463e-03	0.0	8.743320e-01	-8.497018e-03	0.0	8.759919e-01	-1.369961e-02	0.0	9.363851e-01	-1.536705e-02	0.0	9.429378e-01	-8.913751e-03	0.0	9.352373e-01	-7.328898e-03	0.0	1.492119e-01	-9.103468e-02	0.0	1.545644e-01	-1.070053e-01	0.0	1.629791e-01	-9.181332e-02	0.0	1.052918e-01	-1.649081e-01	0.0	1.264060e-01	-1.369279e-01	0.0	9.362185e-02	-1.396041e-0
[...]
POINT_DATA 1837

SCALARS Density double 1
LOOKUP_TABLE default
1.291563e+00	1.291633e+00	1.292043e+00	1.292200e+00	1.292105e+00	1.292042e+00	1.292007e+00	1.291953e+00	1.291889e+00	1.291831e+00	1.291784e+00	1.291767e+00	1.291774e+00	1.291827e+00	1.291913e+00	1.291996e+00	1.292076e+00	1.292136e+00	1.292183e+00	1.292217e+00	1.292243e+00	1.292262e+00	1.292276e+00	1.292289e+00	1.292298e+00	1.292309e+00	1.292320e+00	1.292333e+00	1.292349e+00	1.292371e+00	1.292398e+00	1.292433e+00	1.292481e+00	1.292534e+00	1.292601e+00	1.292683e+00	1.292759e+00	1.292818e+00	1.292829e+00	1.292803e+00	1.292751e+00	1.292683e+00	1.292611e+00	1.292540e+00	1.292468e+00	1.292412e+00	1.292422e+00	1.292320e+00	1.291936e+00	1.450682e+00	1.125730e+00	1.117320e+00	1.049074e+00	1.017372e+00	9.932805e-01	9.919108e-01	9.677883e-01	9.372474e-01	8.766396e-01	8.083750e-01	7.018173e-01	6.118599e-01	5.332747e-01	5.548971e-01	8.616445e-01	1.138935e+00	1.165151e+00	1.180780e+00	1.174921e+00	1.160618e+00	1.149647e+00	1.126498e+00	1.090219e+00	1.056496e+00	1.013994e+00	9.514993e-01	9.076134e-01	8.460478e-01	7.811086e-01	7.574142e-01	7.212008e-01	7.028295e-01	7.504575e-01	9.182829e-01	1.039157e+00	1.080576e+00	1.096331e+00	1.108619e+00	1.118544e+00	1.120453e+00	1.125047e+00	1.124673e+00	1.119959e+00	1.114947e+00	1.097774e+00	1.081209e+00	1.059867e+00	1.026670e+00	9.914618e-01	9.582586e-01	9.006806e-01	8.535462e-01	8.065007e-01	7.505633e-01	7.235194e-01	6.869365e-01	6.567649e-01	6.470221e-01	6.345425e-01	6.337557e-01	6.403443e-01	6.411786e-01	6.490156e-01	7.261997e-01	9.374725e-01	1.042852e+00	1.064415e+00	1.063143e+00	1.066933e+00	1.083234e+00	1.091290e+00	1.112919e+00	1.138085e+00	1.156435e+00	1.180589e+00	1.197212e+00	1.210684e+00	1.224810e+00	1.230935e+00	1.236332e+00	1.241244e+00	1.241351e+00	1.245015e+00	1.246073e+00	1.246530e+00	1.248548e+00	1.249549e+00	1.251304e+00	1.253531e+00	1.256135e+00	1.258758e+00	1.262146e+00	1.265180e+00	1.268691e+00	1.272773e+00	1.276812e+00	1.283327e+00	1.278274e+00	1.298264e+00	1.388085e+00	1.357243e+00	1.354228e+00	1.360204e+00	1.361024e+00	1.362602e+00	1.363751e+00	1.365826e+00	1.366494e+00	1.368035e+00	1.369579e+00	1.369588e+00	1.372281e+00	1.371518e+00	1.374368e+00	1.374961e+00	1.374152e+00	1.376529e+00	1.373240e+00	1.374649e+00	1.371444e+00	1.366311e+00	1.362380e+00	1.353366e+00	1.347270e+00	1.336532e+00	1.327123e+00	1.315542e+00	1.300922e+00	1.287250e+00	1.272037e+00	1.253001e+00	1.238779e+00	1.218794e+00	1.199439e+00	1.186322e+00	1.159513e+00	1.143586e+00	1.128724e+00	1.111660e+00	1.105791e+00	1.087909e+00	1.088238e+00	1.096395e+00	1.103046e+00	1.129512e+00	1.147444e+00	1.171328e+00	1.200403e+00	1.218865e+00	1.237247e+00	1.255918e+00	1.261585e+00	1.266557e+00	1.268766e+00	1.258965e+00	1.252072e+00	1.244172e+00	1.225794e+00	1.216629e+00	1.209653e+00	1.198670e+00	1.204483e+00	1.215155e+00	1.224406e+00	1.240964e+00	1.256744e+00	1.260276e+00	1.277216e+00	1.277249e+00	1.260396e+00	1.257334e+00	1.235203e+00	1.196501e+00	9.723882e-01	6.851516e-01	6.270533e-01	6.851672e-01	7.443936e-01	8.939546e-01	1.076208e+00	1.125348e+00	1.228842e+00	1.311538e+00	1.364849e+00	1.426459e+00	1.468741e+00	1.494539e+00	1.521664e+00	1.538079e+00	1.545472e+00	1.555124e+00	1.558261e+00	1.571472e+00	1.585491e+00	1.619794e+00	1.636620e+00	1.691744e+00	1.136107e+00	1.186073e+00	1.292119e+00	1.292117e+00	1.292069e+00	1.292147e+00	1.292327e+00	1.292160e+00	1.291833e+00	1.291694e+00	1.291728e+00	1.291915e+00	1.292084e+00	1.292429e+00	1.292422e+00	1.292371e+00	1.292344e+00	1.292060e+00	1.291980e+00	1.292026e+00	1.292596e+00	1.292566e+00	1.292663e+00	1.291993e+00	1.292028e+00	1.291936e+00	1.292703e+00	1.292635e+00	1.292460e+00	1.291887e+00	1.291634e+00	1.291606e+00	1.291449e+00	1.292573e+00	1.291732e+00	1.291818e+00	1.291771e+00	1.292788e+00	1.292846e+00	1.292765e+00	1.291181e+00	1.291065e+00	1.290623e+00	1.064115e+00	1.023162e+00	1.074663e+00	1.077882e+00	1.051366e+00	1.118340e+00	1.109519e+00	1.133610e+00	1.104605e+00	1.130278e+00	1.284042e+00	1.273976e+00	1.272913e+00	1.270317e+00	1.261662e+00	1.260908e+00	1.255174e+00	1.249561e+00	1.250383e+00	1.250724e+00	1.253650e+00	1.254902e+00	1.253917e+00	1.377493e+00	1.376338e+00	1.378622e+00	1.376472e+00	1.372388e+00	1.372781e+00	8.560592e-01	1.004276e+00	1.033581e+00	1.245857e+00	1.153724e+00	1.254917e+00	1.372767e+00	1.370955e+00	1.367844e+00	1.380221e+00	1.373109e+00	1.373877e+00	1.386839e+00	1.360590e+00	1.359008e+00	1.282798e+00	1.286072e+00	1.286686e+00	1.174864e+00	1.163361e+00	1.174873e+00	8.570351e-01	8.888662e-01	8.215313e-01	1.139828e+00	1.146410e+00	1.163160e+00	1.143896e+00	7.518828e-01	7.862879e-01	1.149109e+00	1.139044e+00	1.158546e+00	1.162303e+00	1.169242e+00	7.340038e-01	7.794404e-01	1.132284e+00	1.227418e+00	1.246998e+00	1.226589e+00	6.730948e-01	1.233584e+00	1.238007e+00	1.086357e+00	1.078695e+00	1.276897e+00	1.278825e+00	1.273290e+00	1.369227e+00	1.369268e+00	1.259622e+00	1.256869e+00	1.258644e+00	1.270529e+00	1.278207e+00	1.275004e+00	1.289043e+00	1.296139e+00	1.299237e+00	1.250577e+00	1.243276e+00	1.245095e+00	1.273093e+00	1.277161e+00	1.280839e+00	1.284038e+00	1.292194e+00	1.288900e+00	1.255097e+00	1.258225e+00	1.379310e+00	1.379537e+00	1.382990e+00	1.116663e+00	1.139514e+00	1.216716e+00	1.217947e+00	1.196359e+00	1.403963e+00	1.424882e+00	1.435467e+00	1.444247e+00	1.408257e+00	1.472161e+00	1.472164e+00	1.542461e+00	1.512804e+00	1.502044e+00	1.333285e+00	1.319185e+00	1.346669e+00	1.623599e+00	1.629635e+00	1.346928e+00	1.353556e+00	6.458984e-01	6.776400e-01	6.601871e-01	1.144028e+00	1.303872e+00	1.304617e+00	1.308883e+00	1.585202e+00	1.610427e+00	1.582858e+00	1.374549e+00	1.357718e+00	1.347484e+00	1.312737e+00	1.357360e+00	1.348826e+00	1.301926e+00	1.295738e+00	1.310550e+00	1.346935e+00	1.345301e+00	1.364282e+00	1.364239e+00	1.366522e+00	1.359820e+00	1.607170e+00	1.592564e+00	1.582737e+00	1.370085e+00	1.376410e+00	1.265615e+00	1.281877e+00	1.239780e+00	1.260830e+00	1.382927e+00	1.380069e+00	1.383485e+00	1.133951e+00	1.173644e+00	1.144960e+00	1.198719e+00	1.098029e+00	1.047709e+00	1.127034e+00	1.130762e+00	1.151812e+00	1.135370e+00	1.235134e+00	1.220709e+00	1.221536e+00	8.014145e-01	9.901107e-01	9.980142e-01	1.048865e+00	1.143452e+00	1.130710e+00	1.180855e+00	1.200992e+00	1.183410e+00	8.001942e-01	7.615888e-01	8.038751e-01	1.288320e+00	1.289103e+00	1.029679e+00	9.295225e-01	8.746682e-01	1.269936e+00	1.252332e+00	1.263653e+00	1.235385e+00	1.216181e+00	1.218499e+00	1.248518e+00	1.240253e+00	1.259586e+00	1.252189e+00	1.250184e+00	1.264040e+00	1.274805e+00	1.362674e+00	1.349389e+00	1.350263e+00	1.368300e+00	1.283271e+00	1.267007e+00	1.267136e+00	1.284514e+00	1.290801e+00	1.286606e+00	1.277210e+00	1.262353e+00	1.275600e+00	9.905023e-01	9.051606e-01	1.043685e+00	1.278406e+00	1.372214e+00	1.373322e+00	1.279345e+00	1.278748e+00	1.273778e+00	1.281514e+00	1.286839e+00	1.329594e+00	1.299097e+00	1.294740e+00	1.300875e+00	1.312826e+00	1.301963e+00	1.289144e+00	1.288706e+00	1.280215e+00	1.300199e+00	1.275766e+00	1.301831e+00	1.238242e+00	1.242464e+00	1.310193e+00	1.309461e+00	1.306991e+00	1.285390e+00	1.291255e+00	1.291460e+00	1.291282e+00	1.291632e+00	1.291655e+00	1.291680e+00	1.230596e+00	1.234647e+00	1.218745e+00	1.223039e+00	1.211984e+00	1.183966e+00	1.161443e+00	1.178493e+00	1.263762e+00	1.270089e+00	1.260523e+00	1.058274e+00	7.020027e-01	6.513211e-01	6.752262e-01	1.291458e+00	6.594843e-01	1.275085e+00	1.254975e+00	1.269538e+00	6.637934e-01	6.810544e-01	1.291897e+00	1.291795e+00	1.291158e+00	6.973645e-01	7.083812e-01	6.658974e-01	6.519339e-01	9.164401e-01	8.690603e-01	8.376238e-01	9.660896e-01	9.191957e-01	9.980399e-01	1.291797e+00	1.204414e+00	1.239479e+00	1.154086e+00	1.160434e+00	1.144478e+00	1.291964e+00	6.656582e-01	6.351325e-01	5.662461e-01	1.276169e+00	1.285103e+00	1.285071e+00	1.292058e+00	5.965758e-01	1.292174e+00	1.291569e+00	1.291880e+00	1.291763e+00	1.292042e+00	1.291451e+00	1.292367e+00	1.292480e+00	1.292678e+00	1.292149e+00	1.292196e+00	1.292158e+00	1.290017e+00	1.289778e+00	1.014536e+00	9.992078e-01	9.548752e-01	1.292232e+00	1.292183e+00	1.292240e+00	1.292280e+00	1.292266e+00	1.292270e+00	1.292217e+00	1.292253e+00	1.292315e+00	1.292332e+00	1.292342e+00	1.292355e+00	1.292434e+00	1.292489e+00	1.292481e+00	1.292390e+00	1.292374e+00	1.292250e+00	1.292311e+00	1.292501e+00	1.292469e+00	1.292430e+00	1.292525e+00	1.026007e+00	1.292507e+00	1.294399e+00	1.296509e+00	1.295929e+00	1.294286e+00	1.292594e+00	1.292566e+00	1.570124e+00	1.557605e+00	1.568771e+00	1.293045e+00	1.293262e+00	1.293204e+00	1.292828e+00	1.292676e+00	1.292769e+00	1.511197e+00	1.504025e+00	1.523652e+00	1.296076e+00	1.296103e+00	1.295453e+00	1.292760e+00	1.292861e+00	1.292832e+00	1.482824e+00	1.482647e+00	1.495212e+00	1.472877e+00	1.505948e+00	1.378472e+00	1.376783e+00	1.379801e+00	1.380769e+00	1.377348e+00	1.374082e+00	1.376421e+00	7.221365e-01	6.875575e-01	1.028278e+00	1.212438e+00	1.237017e+00	1.038885e+00	1.257543e+00	1.242444e+00	1.167387e+00	1.253788e+00	1.266560e+00	1.326322e+00	1.308490e+00	1.301472e+00	1.206730e+00	1.191582e+00	1.298023e+00	1.294402e+00	1.289351e+00	1.147499e+00	1.194065e+00	1.182301e+00	1.205824e+00	1.131206e+00	1.157796e+00	1.138404e+00	1.361739e+00	1.362266e+00	1.363906e+00	1.152504e+00	1.151120e+00	1.125710e+00	1.129130e+00	1.249735e+00	1.237164e+00	1.221556e+00	1.141855e+00	1.168473e+00	1.174107e+00	1.159888e+00	1.192107e+00	1.292855e+00	1.292808e+00	1.216425e+00	1.200261e+00	1.309987e+00	1.299703e+00	1.312645e+00	1.451467e+00	1.298606e+00	1.299950e+00	1.301015e+00	1.248270e+00	1.257956e+00	1.265157e+00	1.275196e+00	1.283069e+00	1.283426e+00	1.288626e+00	1.292297e+00	1.019469e+00	1.065789e+00	1.042613e+00	1.291970e+00	1.292095e+00	1.291981e+00	1.061891e+00	1.373755e+00	1.368275e+00	1.373073e+00	1.294766e+00	1.293467e+00	1.294540e+00	1.292718e+00	1.292855e+00	1.292969e+00	1.291904e+00	1.291980e+00	1.292075e+00	1.293875e+00	1.293555e+00	1.293464e+00	1.292722e+00	1.291833e+00	1.291783e+00	1.291734e+00	1.291712e+00	1.291881e+00	1.291718e+00	1.291804e+00	1.291990e+00	1.291844e+00	1.292516e+00	1.292455e+00	1.292508e+00	1.291771e+00	1.291708e+00	1.292077e+00	1.292897e+00	1.293254e+00	1.293573e+00	1.293170e+00	1.293936e+00	1.293800e+00	1.291828e+00	1.291519e+00	1.290765e+00	1.292183e+00	1.292188e+00	1.291658e+00	1.291743e+00	1.290448e+00	1.291319e+00	1.291456e+00	1.288423e+00	1.289782e+00	1.289562e+00	1.293946e+00	1.293407e+00	1.293109e+00	1.292570e+00	1.292752e+00	1.292659e+00	1.292693e+00	1.292591e+00	1.292322e+00	1.292336e+00	1.292362e+00	1.292249e+00	1.291746e+00	1.291713e+00	1.292855e+00	1.292930e+00	1.292065e+00	1.292027e+00	1.291947e+00	1.291723e+00	1.291824e+00	1.291777e+00	1.291883e+00	1.291937e+00	1.291851e+00	1.292005e+00	1.292404e+00	1.292744e+00	1.292693e+00	1.292597e+00	1.292524e+00	1.292595e+00	1.291987e+00	1.291685e+00	1.291661e+00	1.292297e+00	1.292397e+00	1.293006e+00	1.224488e+00	1.191072e+00	1.102501e+00	1.137954e+00	1.291851e+00	1.292820e+00	1.291834e+00	1.291654e+00	1.291801e+00	1.292086e+00	1.292122e+00	1.292389e+00	1.292302e+00	1.292387e+00	1.292419e+00	1.291539e+00	1.292666e+00	1.292390e+00	1.292275e+00	1.292643e+00	1.293920e+00	1.293624e+00	1.293114e+00	1.292730e+00	1.291773e+00	1.292824e+00	1.295334e+00	1.293915e+00	1.294368e+00	1.290424e+00	1.290742e+00	8.467781e-01	9.466126e-01	8.909116e-01	1.292086e+00	1.292468e+00	1.291682e+00	1.292272e+00	1.292197e+00	1.292061e+00	1.292343e+00	1.292386e+00	1.292301e+00	1.292350e+00	1.292435e+00	1.292106e+00	1.292000e+00	1.291541e+00	1.292700e+00	1.292951e+00	1.292843e+00	1.291719e+00	1.291893e+00	1.291815e+00	1.292900e+00	1.292996e+00	1.292890e+00	1.292051e+00	1.292484e+00	1.292453e+00	1.292480e+00	1.292550e+00	1.292953e+00	1.293070e+00	1.292619e+00	1.292636e+00	1.291561e+00	1.292130e+00	1.291865e+00	1.293003e+00	1.292838e+00	1.291868e+00	1.291934e+00	1.291108e+00	1.291367e+00	1.291430e+00	1.293058e+00	1.292928e+00	1.292507e+00	1.291923e+00	1.292412e+00	1.292453e+00	1.292474e+00	1.291208e+00	1.293092e+00	1.291369e+00	1.291929e+00	1.292817e+00	1.291898e+00	1.291686e+00	1.292802e+00	1.292929e+00	1.291876e+00	1.291731e+00	1.294689e+00	1.294537e+00	1.292641e+00	1.292578e+00	1.292531e+00	1.293012e+00	1.292942e+00	1.292095e+00	7.360637e-01	7.205152e-01	1.289555e+00	1.291493e+00	1.295036e+00	1.291464e+00	1.292026e+00	1.291264e+00	1.291732e+00	1.536760e+00	1.283382e+00	1.278520e+00	1.296857e+00	1.295159e+00	1.179671e+00	1.276952e+00	1.232904e+00	1.288245e+00	1.290401e+00	1.290744e+00	1.292369e+00	1.365834e+00	1.367127e+00	1.364130e+00	1.293189e+00	1.292413e+00	1.293259e+00	1.290653e+00	1.290010e+00	1.291121e+00	1.289144e+00	7.492779e-01	8.108469e-01	1.290009e+00	1.289709e+00	1.296397e+00	1.292945e+00	1.293911e+00	1.292544e+00	1.292135e+00	1.297770e+00	1.287323e+00	1.288839e+00	1.297376e+00	1.291582e+00	1.288802e+00	1.296290e+00	1.286950e+00	1.289068e+00	1.292692e+00	1.285330e+00	1.292981e+00	1.262365e+00	1.234060e+00	1.234099e+00	1.298470e+00	1.300810e+00	1.290614e+00	1.301187e+00	1.298896e+00	1.302641e+00	1.260448e+00	1.284101e+00	1.182875e+00	1.278280e+00	1.292190e+00	1.296473e+00	1.281626e+00	1.279063e+00	1.252683e+00	1.251648e+00	1.376827e+00	1.381499e+00	1.378010e+00	1.302461e+00	1.304939e+00	1.303028e+00	1.403643e+00	1.277946e+00	1.293290e+00	1.312291e+00	1.299502e+00	1.297692e+00	1.295538e+00	1.306142e+00	1.287896e+00	1.292651e+00	1.295857e+00	6.471559e-01	6.446029e-01	1.279885e+00	1.288714e+00	1.307761e+00	1.311902e+00	1.249816e+00	1.237098e+00	1.250180e+00	1.296933e+00	1.298604e+00	1.294120e+00	1.296912e+00	1.296938e+00	1.298637e+00	1.303752e+00	1.300031e+00	1.285756e+00	1.291295e+00	1.299224e+00	1.063130e+00	1.109100e+00	1.047313e+00	1.264633e+00	1.224785e+00	1.217097e+00	1.202560e+00	1.286003e+00	1.290959e+00	1.297631e+00	1.288643e+00	1.289664e+00	1.301243e+00	1.304352e+00	1.310978e+00	1.308565e+00	1.302524e+00	1.304068e+00	1.293150e+00	1.310158e+00	1.303816e+00	1.313685e+00	1.323381e+00	1.327025e+00	1.303797e+00	1.304230e+00	1.304261e+00	1.305256e+00	1.318637e+00	1.314348e+00	1.203403e+00	1.189622e+00	1.074973e+00	1.087992e+00	1.049041e+00	1.317002e+00	1.241364e+00	1.222498e+00	1.279775e+00	1.287293e+00	1.283864e+00	1.296848e+00	1.307217e+00	1.256583e+00	1.235128e+00	9.505432e-01	8.847056e-01	1.303312e+00	1.272179e+00	1.165248e+00	1.311557e+00	1.329767e+00	1.338332e+00	1.321054e+00	1.330503e+00	1.132545e+00	1.140032e+00	1.148470e+00	1.291599e+00	1.269404e+00	1.294582e+00	1.293386e+00	1.318659e+00	1.253836e+00	1.237444e+00	1.293602e+00	1.286955e+00	1.122337e+00	1.151308e+00	1.129498e+00	1.326079e+00	1.316798e+00	1.316098e+00	1.224714e+00	1.177854e+00	1.301500e+00	1.298778e+00	1.305516e+00	1.314731e+00	1.326867e+00	1.330414e+00	1.259042e+00	1.238995e+00	1.293030e+00	1.308732e+00	1.116026e+00	1.199808e+00	9.185229e-01	8.333546e-01	1.051135e+00	1.332874e+00	1.338861e+00	1.329716e+00	1.315683e+00	1.185681e+00	1.314914e+00	1.269031e+00	1.320464e+00	1.338453e+00	1.280840e+00	1.299131e+00	1.282397e+00	1.331952e+00	1.353799e+00	1.353531e+00	1.359688e+00	1.152364e+00	1.089505e+00	1.132104e+00	1.126401e+00	1.117469e+00	1.135715e+00	1.098882e+00	1.338968e+00	1.377021e+00	1.318813e+00	1.287878e+00	1.291025e+00	1.285999e+00	1.173011e+00	1.270069e+00	1.311108e+00	1.249132e+00	1.099802e+00	1.182544e+00	1.322056e+00	1.263754e+00	1.271515e+00	1.278973e+00	1.344969e+00	1.287953e+00	1.242273e+00	8.581263e-01	8.509899e-01	1.025421e+00	1.116561e+00	1.052918e+00	1.007867e+00	1.359481e+00	1.422077e+00	1.395870e+00	1.438869e+00	1.326436e+00	1.338969e+00	1.349046e+00	1.361911e+00	1.144259e+00	1.197953e+00	1.318497e+00	1.334613e+00	1.298827e+00	8.917119e-01	9.663053e-01	1.335346e+00	1.304321e+00	1.291525e+00	1.278123e+00	1.281088e+00	1.278563e+00	1.307267e+00	1.308941e+00	1.299274e+00	1.312520e+00	1.334423e+00	1.300109e+00	1.243700e+00	1.253429e+00	1.206326e+00	1.312442e+00	1.276248e+00	1.262699e+00	1.372533e+00	1.360206e+00	1.377603e+00	1.296949e+00	1.293465e+00	1.314726e+00	1.347259e+00	1.266186e+00	1.321131e+00	1.363475e+00	1.316519e+00	9.248057e-01	1.084325e+00	1.101052e+00	1.084159e+00	1.433962e+00	1.450198e+00	1.418640e+00	1.448621e+00	1.030175e+00	1.146710e+00	1.126728e+00	1.312312e+00	1.285191e+00	1.289358e+00	1.225199e+00	1.372575e+00	1.381280e+00	1.354120e+00	1.273622e+00	1.261445e+00	1.272273e+00	1.371098e+00	1.372523e+00	1.400243e+00	1.196045e+00	1.085714e+00	1.092392e+00	1.106726e+00	1.239970e+00	1.263498e+00	1.344477e+00	1.366011e+00	1.358213e+00	1.281506e+00	1.343319e+00	1.348672e+00	1.341863e+00	1.383623e+00	1.395908e+00	1.281558e+00	1.261618e+00	1.274051e+00	1.277756e+00	1.274591e+00	1.275840e+00	1.230076e+00	1.208161e+00	1.263708e+00	1.269925e+00	1.275727e+00	1.277103e+00	8.222081e-01	9.272451e-01	9.895817e-01	7.115937e-01	1.101359e+00	1.367463e+00	1.381463e+00	7.568469e-01	1.046150e+00	1.076970e+00	1.123774e+00	1.268358e+00	1.276862e+00	1.393311e+00	1.238496e+00	1.274066e+00	1.283752e+00	1.143000e+00	1.160863e+00	1.016246e+00	1.070462e+00	1.259865e+00	1.370143e+00	1.376379e+00	1.402585e+00	1.392147e+00	1.374248e+00	9.399037e-01	9.265546e-01	1.007811e+00	1.159496e+00	1.228096e+00	1.229577e+00	1.285443e+00	1.315874e+00	1.337359e+00	1.191735e+00	1.459591e+00	1.661976e+00	1.627647e+00	1.169900e+00	1.297818e+00	1.288012e+00	1.262740e+00	1.273097e+00	1.278666e+00	1.267522e+00	1.246137e+00	1.258423e+00	1.120622e+00	1.104328e+00	1.234773e+00	1.284691e+00	1.305324e+00	1.309922e+00	1.308465e+00	1.338947e+00	1.345306e+00	1.071205e+00	1.193307e+00	1.157284e+00	1.324372e+00	1.298081e+00	1.423040e+00	1.446665e+00	1.476957e+00	1.080079e+00	1.114188e+00	1.202559e+00	9.878136e-01	1.207379e+00	1.179084e+00	1.365825e+00	1.354617e+00	1.349346e+00	1.345002e+00	1.206892e+00	1.014962e+00	1.258499e+00	1.273840e+00	1.347951e+00	1.157963e+00	1.172097e+00	1.159656e+00	6.396695e-01	8.137946e-01	1.469708e+00	1.480337e+00	1.276721e+00	1.369394e+00	1.376963e+00	1.370425e+00	1.017029e+00	1.262689e+00	1.268808e+00	1.240967e+00	1.246071e+00	1.228568e+00	1.282706e+00	1.272990e+00	1.274889e+00	1.267571e+00	1.267538e+00	1.275592e+00	1.281520e+00	1.286577e+00	1.273451e+00	1.303044e+00	1.308308e+00	1.252565e+00	1.241967e+00	1.260009e+00	1.315397e+00	1.225647e+00	1.241348e+00	1.317254e+00	9.385764e-01	1.050524e+00	1.007536e+00	1.012029e+00	9.281905e-01	9.160801e-01	1.372757e+00	1.417193e+00	1.105222e+00	7.508872e-01	9.719516e-01	9.288760e-01	1.119951e+00	1.051881e+00	1.131143e+00	1.356305e+00	1.124741e+00	1.125841e+00	1.100993e+00	1.321712e+00	1.296210e+00	1.333910e+00	1.280259e+00	1.285549e+00	1.295087e+00	1.301284e+00	1.341939e+00	1.470989e+00	1.421334e+00	1.358784e+00	1.275602e+00	1.340155e+00	1.356748e+00	1.381062e+00	1.335838e+00	1.028062e+00	1.063060e+00	1.256977e+00	1.255490e+00	1.232205e+00	1.216530e+00	1.273239e+00	1.245787e+00	1.111933e+00	1.115790e+00	9.962222e-01	9.551077e-01	1.277209e+00	1.273077e+00	1.268820e+00	1.276761e+00	8.152790e-01	8.740093e-01	7.042988e-01	1.380691e+00	1.376886e+00	1.519755e+00	1.452057e+00	1.499306e+00	8.925799e-01	1.119238e+00	1.139966e+00	1.173906e+00	1.249101e+00	1.232436e+00	1.308293e+00	1.295067e+00	1.308176e+00	1.110497e+00	1.080312e+00	1.179687e+00	7.409232e-01	6.964397e-01	1.376116e+00	1.271757e+00	1.264682e+00	1.262921e+00	1.153621e+00	1.171344e+00	1.280877e+00	1.283435e+00	1.273903e+00	1.280063e+00	1.196551e+00	1.255658e+00	1.330717e+00	1.274950e+00	1.274912e+00	1.288045e+00	1.283303e+00	1.124986e+00	1.177127e+00	1.182133e+00	1.206665e+00	1.296076e+00	9.651354e-01	6.735901e-01	1.024328e+00	9.779100e-01	1.005909e+00	1.283006e+00	1.278346e+00	1.168235e+00	1.197789e+00	1.545499e+00	1.539839e+00	1.551761e+00	1.149991e+00	1.273015e+00	1.285338e+00	1.282712e+00	1.371207e+00	1.263281e+00	1.254028e+00	1.268474e+00	1.171017e+00	1.312370e+00	1.374232e+00	1.082401e+00	1.193010e+00	1.198937e+00	1.366477e+00	1.361261e+00	7.227852e-01	7.722654e-01	8.008912e-01	1.272084e+00	1.168959e+00	1.154691e+00	1.171527e+00	1.477801e+00	1.238245e+00	1.226121e+00	1.258526e+00	1.043543e+00	1.246391e+00	1.311967e+00	1.183100e+00	1.064754e+00	1.162346e+00	1.329028e+00	1.324101e+00	1.236052e+00	1.222128e+00	1.204641e+00	1.186804e+00	1.132722e+00	7.572472e-01	1.039166