# vtk DataFile Version 3.0
vtk output
ASCII
DATASET UNSTRUCTURED_GRID
POINTS 198 double
0.000000e+00	0.000000e+00	0.0	3.279096e-03	3.774590e-03	0.0	6.783216e-03	7.574773e-03	0.0	1.123731e-02	1.059023e-02	0.0	1.592089e-02	1.360034e-02	0.0	2.112771e-02	1.610369e-02	0.0	2.655076e-02	1.862728e-02	0.0	3.231858e-02	2.088775e-02	0.0	3.831940e-02	2.313548e-02	0.0	4.464849e-02	2.511285e-02	0.0	5.125834e-02	2.689299e-02	0.0	5.821320e-02	2.823746e-02	0.0	6.547475e-02	2.892463e-02	0.0	7.302261e-02	2.916853e-02	0.0	8.076594e-02	2.833732e-02	0.0	8.875156e-02	2.746489e-02	0.0	9.698752e-02	2.662961e-02	0.0	1.054925e-01	2.653808e-02	0.0	1.142598e-01	2.689873e-02	0.0	1.231211e-01	2.845182e-02	0.0	1.321701e-01	3.049705e-02	0.0	1.413669e-01	3.296444e-02	0.0	1.507045e-01	3.588022e-02	0.0	1.602827e-01	3.887113e-02	0.0	1.701543e-01	4.175893e-02	0.0	1.802663e-01	4.471358e-02	0.0	1.907023e-01	4.738151e-02	0.0	2.015240e-01	4.949664e-02	0.0	2.125822e-01	5.165799e-02	0.0	2.240105e-01	5.286178e-02	0.0	2.357091e-01	5.380034e-02	0.0	2.476417e-01	5.458038e-02	0.0	2.598228e-01	5.477366e-02	0.0	2.722172e-01	5.497032e-02	0.0	2.848182e-01	5.503706e-02	0.0	2.976169e-01	5.504643e-02	0.0	3.106033e-01	5.510973e-02	0.0	3.237651e-01	5.542740e-02	0.0	3.370953e-01	5.574912e-02	0.0	3.505705e-01	5.637335e-02	0.0	3.641854e-01	5.715492e-02	0.0	3.779279e-01	5.802291e-02	0.0	3.917609e-01	5.930409e-02	0.0	4.057016e-01	6.059524e-02	0.0	4.196993e-01	6.223034e-02	0.0	4.337583e-01	6.404557e-02	0.0	4.478786e-01	6.590371e-02	0.0	4.620256e-01	6.794979e-02	0.0	4.762095e-01	7.000121e-02	0.0	4.904475e-01	7.181343e-02	0.0	5.047097e-01	7.349903e-02	0.0	5.189775e-01	7.502653e-02	0.0	5.332919e-01	7.572599e-02	0.0	5.475691e-01	7.642363e-02	0.0	5.617957e-01	7.620813e-02	0.0	5.759565e-01	7.555872e-02	0.0	5.900231e-01	7.474106e-02	0.0	6.039368e-01	7.318554e-02	0.0	6.177430e-01	7.164203e-02	0.0	6.313986e-01	6.987038e-02	0.0	6.449071e-01	6.800117e-02	0.0	6.582739e-01	6.617282e-02	0.0	6.715009e-01	6.448661e-02	0.0	6.845609e-01	6.282169e-02	0.0	6.974536e-01	6.126071e-02	0.0	7.101658e-01	5.977441e-02	0.0	7.226800e-01	5.829524e-02	0.0	7.349681e-01	5.666409e-02	0.0	7.470448e-01	5.506100e-02	0.0	7.588508e-01	5.315227e-02	0.0	7.703983e-01	5.105689e-02	0.0	7.816875e-01	4.886293e-02	0.0	7.926188e-01	4.613126e-02	0.0	8.033163e-01	4.345800e-02	0.0	8.136817e-01	4.049284e-02	0.0	8.237949e-01	3.754233e-02	0.0	8.336704e-01	3.466775e-02	0.0	8.433062e-01	3.186786e-02	0.0	8.527244e-01	2.922931e-02	0.0	8.619741e-01	2.693615e-02	0.0	8.709787e-01	2.470374e-02	0.0	8.798032e-01	2.281426e-02	0.0	8.883954e-01	2.103359e-02	0.0	8.967560e-01	1.936780e-02	0.0	9.048982e-01	1.787311e-02	0.0	9.127994e-01	1.642265e-02	0.0	9.204690e-01	1.505280e-02	0.0	9.279046e-01	1.373279e-02	0.0	9.351057e-01	1.244203e-02	0.0	9.420744e-01	1.117108e-02	0.0	9.488182e-01	9.940672e-03	0.0	9.553355e-01	8.718856e-03	0.0	9.616364e-01	7.537603e-03	0.0	9.677210e-01	6.373599e-03	0.0	9.735975e-01	5.245283e-03	0.0	9.792674e-01	4.136383e-03	0.0	9.847379e-01	3.058858e-03	0.0	9.900128e-01	2.006182e-03	0.0	9.950965e-01	9.766988e-04	0.0	1.000000e+00	0.000000e+00	0.0	9.950047e-01	2.166122e-04	0.0	9.898203e-01	4.128117e-04	0.0	9.844409e-01	5.599685e-04	0.0	9.788624e-01	6.635588e-04	0.0	9.730803e-01	7.432504e-04	0.0	9.670896e-01	7.658501e-04	0.0	9.608861e-01	7.654120e-04	0.0	9.544654e-01	6.992671e-04	0.0	9.478230e-01	6.164945e-04	0.0	9.409559e-01	4.367133e-04	0.0	9.338585e-01	2.508993e-04	0.0	9.265302e-01	-4.564663e-05	0.0	9.189649e-01	-3.750912e-04	0.0	9.111617e-01	-7.800938e-04	0.0	9.031199e-01	-1.304718e-03	0.0	8.948312e-01	-1.845454e-03	0.0	8.863105e-01	-2.621709e-03	0.0	8.775410e-01	-3.447479e-03	0.0	8.685355e-01	-4.443121e-03	0.0	8.592987e-01	-5.659527e-03	0.0	8.498126e-01	-6.935301e-03	0.0	8.401323e-01	-8.630396e-03	0.0	8.302006e-01	-1.036951e-02	0.0	8.200713e-01	-1.242627e-02	0.0	8.097087e-01	-1.460765e-02	0.0	7.991284e-01	-1.696392e-02	0.0	7.883312e-01	-1.948583e-02	0.0	7.773015e-01	-2.208569e-02	0.0	7.660594e-01	-2.482921e-02	0.0	7.545888e-01	-2.762848e-02	0.0	7.428847e-01	-3.043920e-02	0.0	7.309603e-01	-3.328860e-02	0.0	7.188128e-01	-3.613338e-02	0.0	7.064205e-01	-3.884327e-02	0.0	6.938326e-01	-4.159592e-02	0.0	6.810013e-01	-4.410842e-02	0.0	6.679639e-01	-4.651624e-02	0.0	6.547474e-01	-4.888665e-02	0.0	6.412899e-01	-5.076979e-02	0.0	6.276856e-01	-5.267347e-02	0.0	6.138993e-01	-5.418062e-02	0.0	5.999586e-01	-5.542090e-02	0.0	5.859033e-01	-5.658544e-02	0.0	5.717086e-01	-5.703662e-02	0.0	5.574320e-01	-5.749041e-02	0.0	5.430865e-01	-5.741486e-02	0.0	5.286874e-01	-5.703104e-02	0.0	5.142534e-01	-5.657310e-02	0.0	4.998117e-01	-5.575381e-02	0.0	4.853623e-01	-5.493408e-02	0.0	4.709163e-01	-5.419616e-02	0.0	4.564912e-01	-5.349334e-02	0.0	4.420999e-01	-5.295112e-02	0.0	4.277486e-01	-5.289949e-02	0.0	4.134649e-01	-5.284810e-02	0.0	3.992741e-01	-5.333125e-02	0.0	3.851822e-01	-5.395591e-02	0.0	3.712032e-01	-5.463517e-02	0.0	3.573535e-01	-5.543341e-02	0.0	3.436395e-01	-5.622382e-02	0.0	3.300604e-01	-5.671908e-02	0.0	3.166388e-01	-5.715793e-02	0.0	3.033860e-01	-5.735492e-02	0.0	2.903110e-01	-5.715415e-02	0.0	2.774272e-01	-5.695632e-02	0.0	2.647464e-01	-5.662803e-02	0.0	2.522745e-01	-5.628872e-02	0.0	2.400176e-01	-5.615773e-02	0.0	2.279820e-01	-5.633074e-02	0.0	2.161760e-01	-5.650045e-02	0.0	2.046665e-01	-5.765843e-02	0.0	1.934021e-01	-5.889478e-02	0.0	1.824158e-01	-6.035822e-02	0.0	1.717280e-01	-6.216908e-02	0.0	1.612871e-01	-6.393809e-02	0.0	1.510287e-01	-6.519811e-02	0.0	1.410134e-01	-6.636208e-02	0.0	1.312373e-01	-6.676134e-02	0.0	1.216937e-01	-6.602370e-02	0.0	1.124048e-01	-6.530574e-02	0.0	1.038592e-01	-6.233706e-02	0.0	9.557702e-02	-5.933845e-02	0.0	8.779707e-02	-5.585403e-02	0.0	8.059556e-02	-5.171473e-02	0.0	7.360863e-02	-4.769877e-02	0.0	6.704942e-02	-4.345696e-02	0.0	6.074860e-02	-3.925660e-02	0.0	5.460752e-02	-3.524895e-02	0.0	4.852529e-02	-3.158627e-02	0.0	4.264053e-02	-2.804250e-02	0.0	3.670755e-02	-2.505624e-02	0.0	3.095804e-02	-2.219774e-02	0.0	2.530786e-02	-1.963651e-02	0.0	1.989549e-02	-1.707206e-02	0.0	1.474960e-02	-1.443395e-02	0.0	1.005521e-02	-1.143124e-02	0.0	5.783557e-03	-8.189570e-03	0.0	2.100026e-03	-4.537608e-03	0.0	
CELLS 198	594
2	82	83	2	83	84	2	84	85	2	85	86	2	86	87	2	87	88	2	88	89	2	89	90	2	90	91	2	91	92	2	92	93	2	93	94	2	94	95	2	95	96	2	96	97	2	97	98	2	98	99	2	99	100	2	100	101	2	101	102	2	102	103	2	103	104	2	104	105	2	105	106	2	106	107	2	107	108	2	108	109	2	109	110	2	110	111	2	111	112	2	112	113	2	113	114	2	114	115	2	115	116	2	116	117	2	117	118	2	118	119	2	119	120	2	120	121	2	121	122	2	122	123	2	123	124	2	124	125	2	125	126	2	126	127	2	127	128	2	128	129	2	129	130	2	130	131	2	131	132	2	132	133	2	133	134	2	134	135	2	135	136	2	136	137	2	137	138	2	138	139	2	11	12	2	12	13	2	13	14	2	14	15	2	15	16	2	16	17	2	17	18	2	18	19	2	19	20	2	20	21	2	21	22	2	22	23	2	23	24	2	24	25	2	25	26	2	26	27	2	27	28	2	28	29	2	29	30	2	30	31	2	31	32	2	32	33	2	33	34	2	34	35	2	35	36	2	36	37	2	37	38	2	38	39	2	39	40	2	40	41	2	41	42	2	42	43	2	43	44	2	44	45	2	45	46	2	46	47	2	47	48	2	48	49	2	49	50	2	50	51	2	51	52	2	52	53	2	53	54	2	54	55	2	55	56	2	56	57	2	57	58	2	58	59	2	59	60	2	60	61	2	61	62	2	62	63	2	63	64	2	64	65	2	65	66	2	66	67	2	67	68	2	68	69	2	69	70	2	70	71	2	71	72	2	72	73	2	73	74	2	74	75	2	75	76	2	76	77	2	77	78	2	78	79	2	79	80	2	80	81	2	81	82	2	0	1	2	1	2	2	2	3	2	3	4	2	4	5	2	5	6	2	6	7	2	7	8	2	8	9	2	9	10	2	10	11	2	139	140	2	140	141	2	141	142	2	142	143	2	143	144	2	144	145	2	145	146	2	146	147	2	147	148	2	148	149	2	149	150	2	150	151	2	151	152	2	152	153	2	153	154	2	154	155	2	155	156	2	156	157	2	157	158	2	158	159	2	159	160	2	160	161	2	161	162	2	162	163	2	163	164	2	164	165	2	165	166	2	166	167	2	167	168	2	168	169	2	169	170	2	170	171	2	171	172	2	172	173	2	173	174	2	174	175	2	175	176	2	176	177	2	177	178	2	178	179	2	179	180	2	180	181	2	181	182	2	182	183	2	183	184	2	184	185	2	185	186	2	186	187	2	187	188	2	188	189	2	189	190	2	190	191	2	191	192	2	192	193	2	193	194	2	194	195	2	195	196	2	196	197	2	197	0	
CELL_TYPES 198
3	3	3	3	3	3	3	3	3	3	3	3	3	3	3	3	3	3	3	3	3	3	3	3	3	3	3	3	3	3	3	3	3	3	3	3	3	3	3	3	3	3	3	3	3	3	3	3	3	3	3	3	3	3	3	3	3	3	3	3	3	3	3	3	3	3	3	3	3	3	3	3	3	3	3	3	3	3	3	3	3	3	3	3	3	3	3	3	3	3	3	3	3	3	3	3	3	3	3	3	3	3	3	3	3	3	3	3	3	3	3	3	3	3	3	3	3	3	3	3	3	3	3	3	3	3	3	3	3	3	3	3	3	3	3	3	3	3	3	3	3	3	3	3	3	3	3	3	3	3	3	3	3	3	3	3	3	3	3	3	3	3	3	3	3	3	3	3	3	3	3	3	3	3	3	3	3	3	3	3	3	3	3	3	3	3	3	3	3	3	3	3	3	3	3	3	3	3	
POINT_DATA 198

SCALARS Density double 1
LOOKUP_TABLE default
1.450682e+00	1.125730e+00	1.117320e+00	1.049074e+00	1.017372e+00	9.932805e-01	9.919108e-01	9.677883e-01	9.372474e-01	8.766396e-01	8.083750e-01	7.018173e-01	6.118599e-01	5.332747e-01	5.548971e-01	8.616445e-01	1.138935e+00	1.165151e+00	1.180780e+00	1.174921e+00	1.160618e+00	1.149647e+00	1.126498e+00	1.090219e+00	1.056496e+00	1.013994e+00	9.514993e-01	9.076134e-01	8.460478e-01	7.811086e-01	7.574142e-01	7.212008e-01	7.028295e-01	7.504575e-01	9.182829e-01	1.039157e+00	1.080576e+00	1.096331e+00	1.108619e+00	1.118544e+00	1.120453e+00	1.125047e+00	1.124673e+00	1.119959e+00	1.114947e+00	1.097774e+00	1.081209e+00	1.059867e+00	1.026670e+00	9.914618e-01	9.582586e-01	9.006806e-01	8.535462e-01	8.065007e-01	7.505633e-01	7.235194e-01	6.869365e-01	6.567649e-01	6.470221e-01	6.345425e-01	6.337557e-01	6.403443e-01	6.411786e-01	6.490156e-01	7.261997e-01	9.374725e-01	1.042852e+00	1.064415e+00	1.063143e+00	1.066933e+00	1.083234e+00	1.091290e+00	1.112919e+00	1.138085e+00	1.156435e+00	1.180589e+00	1.197212e+00	1.210684e+00	1.224810e+00	1.230935e+00	1.236332e+00	1.241244e+00	1.241351e+00	1.245015e+00	1.246073e+00	1.246530e+00	1.248548e+00	1.249549e+00	1.251304e+00	1.253531e+00	1.256135e+00	1.258758e+00	1.262146e+00	1.265180e+00	1.268691e+00	1.272773e+00	1.276812e+00	1.283327e+00	1.278274e+00	1.298264e+00	1.388085e+00	1.357243e+00	1.354228e+00	1.360204e+00	1.361024e+00	1.362602e+00	1.363751e+00	1.365826e+00	1.366494e+00	1.368035e+00	1.369579e+00	1.369588e+00	1.372281e+00	1.371518e+00	1.374368e+00	1.374961e+00	1.374152e+00	1.376529e+00	1.373240e+00	1.374649e+00	1.371444e+00	1.366311e+00	1.362380e+00	1.353366e+00	1.347270e+00	1.336532e+00	1.327123e+00	1.315542e+00	1.300922e+00	1.287250e+00	1.272037e+00	1.253001e+00	1.238779e+00	1.218794e+00	1.199439e+00	1.186322e+00	1.159513e+00	1.143586e+00	1.128724e+00	1.111660e+00	1.105791e+00	1.087909e+00	1.088238e+00	1.096395e+00	1.103046e+00	1.129512e+00	1.147444e+00	1.171328e+00	1.200403e+00	1.218865e+00	1.237247e+00	1.255918e+00	1.261585e+00	1.266557e+00	1.268766e+00	1.258965e+00	1.252072e+00	1.244172e+00	1.225794e+00	1.216629e+00	1.209653e+00	1.198670e+00	1.204483e+00	1.215155e+00	1.224406e+00	1.240964e+00	1.256744e+00	1.260276e+00	1.277216e+00	1.277249e+00	1.260396e+00	1.257334e+00	1.235203e+00	1.196501e+00	9.723882e-01	6.851516e-01	6.270533e-01	6.851672e-01	7.443936e-01	8.939546e-01	1.076208e+00	1.125348e+00	1.228842e+00	1.311538e+00	1.364849e+00	1.426459e+00	1.468741e+00	1.494539e+00	1.521664e+00	1.538079e+00	1.545472e+00	1.555124e+00	1.558261e+00	1.571472e+00	1.585491e+00	1.619794e+00	1.636620e+00	1.691744e+00	
VECTORS Momentum double
3.865610e+01	2.463721e+02	0.0	1.830808e+02	1.974625e+02	0.0	2.187961e+02	1.881034e+02	0.0	2.480574e+02	1.628517e+02	0.0	2.647925e+02	1.471103e+02	0.0	2.753301e+02	1.298856e+02	0.0	2.831538e+02	1.211890e+02	0.0	2.877812e+02	1.103979e+02	0.0	2.948102e+02	1.015738e+02	0.0	2.953417e+02	8.621136e+01	0.0	2.946600e+02	6.933742e+01	0.0	2.816846e+02	4.144204e+01	0.0	2.677655e+02	1.777333e+01	0.0	2.394841e+02	-3.362124e+00	0.0	2.169496e+02	-1.857009e+01	0.0	2.074066e+02	-2.455018e+01	0.0	1.740576e+02	-1.059331e+01	0.0	1.490212e+02	2.449100e+00	0.0	1.342358e+02	1.529914e+01	0.0	1.318742e+02	2.685581e+01	0.0	1.388721e+02	3.427251e+01	0.0	1.526773e+02	4.444030e+01	0.0	1.697458e+02	5.303885e+01	0.0	1.888410e+02	5.679572e+01	0.0	2.056502e+02	5.993253e+01	0.0	2.249044e+02	6.180605e+01	0.0	2.391998e+02	5.355056e+01	0.0	2.497414e+02	4.871899e+01	0.0	2.585673e+02	3.879433e+01	0.0	2.579545e+02	2.333545e+01	0.0	2.594798e+02	1.869611e+01	0.0	2.586133e+02	1.056914e+01	0.0	2.565686e+02	3.545894e+00	0.0	2.580075e+02	2.038152e+00	0.0	2.503138e+02	1.527649e+00	0.0	2.410490e+02	7.973528e-01	0.0	2.330446e+02	3.046394e+00	0.0	2.268151e+02	5.575502e+00	0.0	2.230056e+02	7.912479e+00	0.0	2.207802e+02	1.153317e+01	0.0	2.197453e+02	1.315636e+01	0.0	2.199018e+02	1.696109e+01	0.0	2.226240e+02	2.051451e+01	0.0	2.254804e+02	2.352058e+01	0.0	2.297792e+02	2.832223e+01	0.0	2.342977e+02	3.044131e+01	0.0	2.397303e+02	3.297289e+01	0.0	2.468595e+02	3.574064e+01	0.0	2.545106e+02	3.471231e+01	0.0	2.606392e+02	3.180169e+01	0.0	2.685301e+02	3.050257e+01	0.0	2.713477e+02	2.134630e+01	0.0	2.730753e+02	1.314033e+01	0.0	2.740285e+02	4.752909e+00	0.0	2.689069e+02	-7.981998e+00	0.0	2.668304e+02	-1.375308e+01	0.0	2.616758e+02	-2.203443e+01	0.0	2.561099e+02	-2.880088e+01	0.0	2.550375e+02	-3.111921e+01	0.0	2.520020e+02	-3.399299e+01	0.0	2.520473e+02	-3.501750e+01	0.0	2.538066e+02	-3.364836e+01	0.0	2.543992e+02	-3.261105e+01	0.0	2.551483e+02	-3.158152e+01	0.0	2.564024e+02	-3.129799e+01	0.0	2.543160e+02	-2.787306e+01	0.0	2.488325e+02	-3.005283e+01	0.0	2.475064e+02	-3.241055e+01	0.0	2.459381e+02	-3.610933e+01	0.0	2.422873e+02	-4.172568e+01	0.0	2.403327e+02	-4.517364e+01	0.0	2.349169e+02	-5.204138e+01	0.0	2.267729e+02	-5.662456e+01	0.0	2.192984e+02	-5.857667e+01	0.0	2.095838e+02	-6.058952e+01	0.0	2.007265e+02	-5.842898e+01	0.0	1.932132e+02	-5.611629e+01	0.0	1.855005e+02	-5.301109e+01	0.0	1.808389e+02	-4.775439e+01	0.0	1.774298e+02	-4.396692e+01	0.0	1.739932e+02	-4.021329e+01	0.0	1.728180e+02	-3.634736e+01	0.0	1.718514e+02	-3.493103e+01	0.0	1.710407e+02	-3.272466e+01	0.0	1.708636e+02	-3.133521e+01	0.0	1.702160e+02	-3.084113e+01	0.0	1.693195e+02	-3.012193e+01	0.0	1.682333e+02	-2.999073e+01	0.0	1.665692e+02	-3.009275e+01	0.0	1.644849e+02	-3.001113e+01	0.0	1.623652e+02	-3.001787e+01	0.0	1.598913e+02	-2.997194e+01	0.0	1.574161e+02	-2.978743e+01	0.0	1.545960e+02	-2.961973e+01	0.0	1.515938e+02	-2.937596e+01	0.0	1.484352e+02	-2.907711e+01	0.0	1.443033e+02	-2.859665e+01	0.0	1.395809e+02	-2.799362e+01	0.0	1.302345e+02	-2.755567e+01	0.0	1.558559e+02	-1.191097e+00	0.0	2.278918e+02	-1.267487e+01	0.0	2.153755e+02	-7.069165e+00	0.0	2.096653e+02	-4.435819e+00	0.0	2.107631e+02	-3.476143e+00	0.0	2.093983e+02	-1.868036e+00	0.0	2.085050e+02	-3.913553e-01	0.0	2.077441e+02	1.092956e+00	0.0	2.068346e+02	2.337427e+00	0.0	2.058454e+02	4.011835e+00	0.0	2.053880e+02	5.367790e+00	0.0	2.045049e+02	6.824577e+00	0.0	2.037350e+02	8.577969e+00	0.0	2.029192e+02	9.638776e+00	0.0	2.019091e+02	1.186296e+01	0.0	2.011912e+02	1.306555e+01	0.0	2.002274e+02	1.566881e+01	0.0	2.002763e+02	1.856177e+01	0.0	1.998688e+02	2.038058e+01	0.0	1.996837e+02	2.423880e+01	0.0	2.004038e+02	2.663121e+01	0.0	2.002102e+02	3.105795e+01	0.0	2.022488e+02	3.542416e+01	0.0	2.050791e+02	3.878198e+01	0.0	2.080053e+02	4.309837e+01	0.0	2.124771e+02	4.596935e+01	0.0	2.167201e+02	4.945476e+01	0.0	2.221557e+02	5.205046e+01	0.0	2.270320e+02	5.438346e+01	0.0	2.325727e+02	5.675961e+01	0.0	2.385085e+02	5.773560e+01	0.0	2.439574e+02	5.849163e+01	0.0	2.495002e+02	5.916472e+01	0.0	2.560799e+02	5.791131e+01	0.0	2.614250e+02	5.715060e+01	0.0	2.677639e+02	5.537902e+01	0.0	2.730181e+02	5.173526e+01	0.0	2.763416e+02	5.025310e+01	0.0	2.826122e+02	4.496120e+01	0.0	2.857490e+02	4.007538e+01	0.0	2.881407e+02	3.586572e+01	0.0	2.908998e+02	2.904848e+01	0.0	2.904957e+02	2.529594e+01	0.0	2.925910e+02	1.674042e+01	0.0	2.917884e+02	9.386070e+00	0.0	2.894988e+02	3.854161e+00	0.0	2.871337e+02	-4.625414e+00	0.0	2.809779e+02	-8.046684e+00	0.0	2.761785e+02	-1.215646e+01	0.0	2.692016e+02	-1.532508e+01	0.0	2.614376e+02	-1.397442e+01	0.0	2.554913e+02	-1.281850e+01	0.0	2.491652e+02	-1.087995e+01	0.0	2.439543e+02	-4.956813e+00	0.0	2.409502e+02	-8.614715e-01	0.0	2.396900e+02	3.688194e+00	0.0	2.398464e+02	9.578707e+00	0.0	2.427331e+02	1.123995e+01	0.0	2.462305e+02	1.288821e+01	0.0	2.496057e+02	1.447755e+01	0.0	2.547868e+02	1.201908e+01	0.0	2.555792e+02	8.920670e+00	0.0	2.557984e+02	6.259634e+00	0.0	2.553971e+02	3.038524e-02	0.0	2.500589e+02	-3.703366e+00	0.0	2.441638e+02	-4.854627e+00	0.0	2.378351e+02	-6.303592e+00	0.0	2.306496e+02	-4.312356e+00	0.0	2.240286e+02	5.477690e-01	0.0	2.198432e+02	2.811531e+00	0.0	2.149537e+02	1.232172e+01	0.0	2.172812e+02	2.310787e+01	0.0	2.243354e+02	2.664533e+01	0.0	2.291153e+02	3.417881e+01	0.0	2.372290e+02	3.830858e+01	0.0	2.530944e+02	3.512596e+01	0.0	2.627748e+02	3.062378e+01	0.0	2.660124e+02	1.817355e+01	0.0	2.912049e+02	-6.650818e+00	0.0	2.951988e+02	-2.472964e+01	0.0	3.196842e+02	-6.967899e+01	0.0	3.191319e+02	-1.157998e+02	0.0	3.043918e+02	-1.225144e+02	0.0	2.904214e+02	-1.486299e+02	0.0	2.664981e+02	-1.533251e+02	0.0	2.476178e+02	-1.512430e+02	0.0	2.271892e+02	-1.499908e+02	0.0	2.096550e+02	-1.384336e+02	0.0	1.981706e+02	-1.242140e+02	0.0	1.878382e+02	-1.132103e+02	0.0	1.795255e+02	-9.930261e+01	0.0	1.751071e+02	-8.761996e+01	0.0	1.693542e+02	-8.054292e+01	0.0	1.622701e+02	-7.489389e+01	0.0	1.494887e+02	-7.365230e+01	0.0	1.233064e+02	-7.011536e+01	0.0	8.137586e+01	-5.723238e+01	0.0	2.955592e+01	-2.553131e+01	0.0	-3.918659e+01	5.384962e+01	0.0	
SCALARS Energy double 1
LOOKUP_TABLE default
3.207206e+05	2.533285e+05	2.529476e+05	2.394936e+05	2.335124e+05	2.287327e+05	2.287689e+05	2.238994e+05	2.180723e+05	2.055344e+05	1.914982e+05	1.686974e+05	1.495023e+05	1.310134e+05	1.325416e+05	1.940890e+05	2.508044e+05	2.553991e+05	2.582732e+05	2.569965e+05	2.542110e+05	2.524555e+05	2.483041e+05	2.415212e+05	2.353170e+05	2.275601e+05	2.153639e+05	2.070165e+05	1.950177e+05	1.816611e+05	1.770186e+05	1.696702e+05	1.657988e+05	1.754175e+05	2.088875e+05	2.333404e+05	2.415158e+05	2.444587e+05	2.468325e+05	2.488107e+05	2.491612e+05	2.501554e+05	2.502464e+05	2.494308e+05	2.486561e+05	2.453285e+05	2.422089e+05	2.382297e+05	2.318253e+05	2.249432e+05	2.186974e+05	2.070730e+05	1.976104e+05	1.882035e+05	1.765431e+05	1.709983e+05	1.633107e+05	1.568744e+05	1.548888e+05	1.521647e+05	1.520332e+05	1.534894e+05	1.537031e+05	1.552951e+05	1.706097e+05	2.132752e+05	2.347594e+05	2.391926e+05	2.388568e+05	2.394692e+05	2.427976e+05	2.442368e+05	2.483612e+05	2.532734e+05	2.566651e+05	2.613120e+05	2.644588e+05	2.669419e+05	2.696936e+05	2.708195e+05	2.717969e+05	2.727665e+05	2.727395e+05	2.734746e+05	2.736840e+05	2.737530e+05	2.741453e+05	2.743168e+05	2.746298e+05	2.750277e+05	2.755072e+05	2.759786e+05	2.766151e+05	2.771657e+05	2.778141e+05	2.785824e+05	2.793118e+05	2.805594e+05	2.791880e+05	2.842156e+05	3.063827e+05	2.992206e+05	2.983183e+05	2.996416e+05	2.997555e+05	3.000528e+05	3.002651e+05	3.006692e+05	3.007704e+05	3.010812e+05	3.013753e+05	3.013472e+05	3.018901e+05	3.016896e+05	3.022717e+05	3.023661e+05	3.022055e+05	3.027042e+05	3.020110e+05	3.023548e+05	3.016883e+05	3.007075e+05	3.000147e+05	2.982552e+05	2.971812e+05	2.951230e+05	2.934051e+05	2.912078e+05	2.884126e+05	2.858372e+05	2.829232e+05	2.792233e+05	2.765917e+05	2.727021e+05	2.690160e+05	2.665650e+05	2.611726e+05	2.582289e+05	2.553137e+05	2.519103e+05	2.508442e+05	2.470900e+05	2.472713e+05	2.488701e+05	2.500636e+05	2.553771e+05	2.586729e+05	2.633358e+05	2.689728e+05	2.723578e+05	2.758664e+05	2.794347e+05	2.803303e+05	2.812151e+05	2.816160e+05	2.795583e+05	2.782622e+05	2.767928e+05	2.731121e+05	2.714787e+05	2.700499e+05	2.677474e+05	2.689415e+05	2.708722e+05	2.724842e+05	2.756327e+05	2.785879e+05	2.789936e+05	2.823849e+05	2.821703e+05	2.787421e+05	2.784652e+05	2.740734e+05	2.663687e+05	2.204650e+05	1.631754e+05	1.521799e+05	1.662760e+05	1.782707e+05	2.109712e+05	2.486864e+05	2.577113e+05	2.788612e+05	2.947178e+05	3.047941e+05	3.167654e+05	3.246517e+05	3.293356e+05	3.345049e+05	3.374584e+05	3.386963e+05	3.404761e+05	3.408540e+05	3.433154e+05	3.456438e+05	3.521427e+05	3.550518e+05	3.672476e+05	
SCALARS Pressure double 1
LOOKUP_TABLE default
1.197139e+05	8.844909e+04	8.627649e+04	7.901061e+04	7.536700e+04	7.283232e+04	7.238028e+04	6.992616e+04	6.648086e+04	6.061787e+04	5.392859e+04	4.437790e+04	3.626147e+04	3.089153e+04	3.592806e+04	6.751072e+04	9.498200e+04	9.834667e+04	1.002176e+05	9.971548e+04	9.815868e+04	9.658340e+04	9.370658e+04	8.947475e+04	8.544075e+04	8.029379e+04	7.351619e+04	6.853964e+04	6.184676e+04	5.548753e+04	5.293629e+04	4.929003e+04	4.758383e+04	5.242528e+04	6.990793e+04	8.215302e+04	8.655260e+04	8.839287e+04	8.974993e+04	9.078490e+04	9.101420e+04	9.141462e+04	9.121022e+04	9.059438e+04	8.984752e+04	8.796134e+04	8.605163e+04	8.355135e+04	7.987681e+04	7.606971e+04	7.223487e+04	6.637826e+04	6.153068e+04	5.665423e+04	5.133181e+04	4.866589e+04	4.524679e+04	4.252280e+04	4.155048e+04	4.048567e+04	4.037826e+04	4.092240e+04	4.096203e+04	4.174935e+04	4.986828e+04	7.134625e+04	8.185590e+04	8.396921e+04	8.391879e+04	8.445722e+04	8.607793e+04	8.708450e+04	8.952663e+04	9.225503e+04	9.443444e+04	9.712086e+04	9.902108e+04	1.006281e+05	1.021650e+05	1.028987e+05	1.035598e+05	1.040814e+05	1.041410e+05	1.045183e+05	1.046302e+05	1.046999e+05	1.049204e+05	1.050527e+05	1.052725e+05	1.055507e+05	1.058620e+05	1.061868e+05	1.065788e+05	1.069495e+05	1.073669e+05	1.078379e+05	1.083348e+05	1.090653e+05	1.089027e+05	1.099439e+05	1.150470e+05	1.128455e+05	1.128322e+05	1.133233e+05	1.134584e+05	1.136400e+05	1.137766e+05	1.140025e+05	1.141042e+05	1.142611e+05	1.144360e+05	1.144667e+05	1.147414e+05	1.147105e+05	1.149934e+05	1.150791e+05	1.149942e+05	1.152172e+05	1.149116e+05	1.149955e+05	1.146891e+05	1.141117e+05	1.136110e+05	1.126337e+05	1.118569e+05	1.106549e+05	1.095161e+05	1.081974e+05	1.065541e+05	1.049785e+05	1.032739e+05	1.011944e+05	9.950788e+04	9.733002e+04	9.513983e+04	9.360836e+04	9.086160e+04	8.896975e+04	8.737280e+04	8.559555e+04	8.487970e+04	8.320463e+04	8.312343e+04	8.400099e+04	8.482671e+04	8.754856e+04	8.969710e+04	9.228547e+04	9.547577e+04	9.769579e+04	9.976821e+04	1.018685e+05	1.026935e+05	1.033182e+05	1.035880e+05	1.026701e+05	1.018732e+05	1.009443e+05	9.904529e+04	9.789622e+04	9.720691e+04	9.617485e+04	9.674577e+04	9.805502e+04	9.925189e+04	1.011303e+05	1.029660e+05	1.036327e+05	1.053845e+05	1.056092e+05	1.039206e+05	1.032679e+05	1.009406e+05	9.689514e+04	7.475707e+04	4.484011e+04	3.819672e+04	4.174431e+04	4.773100e+04	6.043801e+04	7.805586e+04	8.395016e+04	9.422160e+04	1.034720e+05	1.095809e+05	1.163151e+05	1.212657e+05	1.244142e+05	1.274800e+05	1.295102e+05	1.305170e+05	1.316676e+05	1.322421e+05	1.337917e+05	1.357194e+05	1.396350e+05	1.418343e+05	1.463747e+05	
SCALARS Temperature double 1
LOOKUP_TABLE default
2.874767e+02	2.737091e+02	2.689956e+02	2.623673e+02	2.580666e+02	2.554363e+02	2.542014e+02	2.517037e+02	2.471000e+02	2.408851e+02	2.324002e+02	2.202790e+02	2.064542e+02	2.017989e+02	2.255546e+02	2.729449e+02	2.905179e+02	2.940410e+02	2.956686e+02	2.956544e+02	2.946250e+02	2.926632e+02	2.897810e+02	2.859020e+02	2.817263e+02	2.758524e+02	2.691565e+02	2.630700e+02	2.546551e+02	2.474653e+02	2.434727e+02	2.380857e+02	2.358521e+02	2.433576e+02	2.652041e+02	2.754055e+02	2.790327e+02	2.808704e+02	2.820214e+02	2.827425e+02	2.829735e+02	2.830580e+02	2.825189e+02	2.817926e+02	2.807257e+02	2.791318e+02	2.772553e+02	2.746202e+02	2.710319e+02	2.672798e+02	2.625999e+02	2.567352e+02	2.511279e+02	2.447135e+02	2.382482e+02	2.343176e+02	2.294571e+02	2.255497e+02	2.237110e+02	2.222649e+02	2.219505e+02	2.226271e+02	2.225526e+02	2.240912e+02	2.392207e+02	2.651203e+02	2.734371e+02	2.748144e+02	2.749780e+02	2.757591e+02	2.768215e+02	2.779911e+02	2.802329e+02	2.823877e+02	2.844721e+02	2.865789e+02	2.881289e+02	2.895467e+02	2.905787e+02	2.912092e+02	2.918009e+02	2.921101e+02	2.922521e+02	2.924476e+02	2.925121e+02	2.925998e+02	2.927419e+02	2.928764e+02	2.930776e+02	2.933300e+02	2.935851e+02	2.938722e+02	2.941655e+02	2.944806e+02	2.948118e+02	2.951555e+02	2.955776e+02	2.960600e+02	2.967869e+02	2.950113e+02	2.887285e+02	2.896388e+02	2.902497e+02	2.902322e+02	2.904030e+02	2.905312e+02	2.906353e+02	2.907698e+02	2.908869e+02	2.909590e+02	2.910756e+02	2.911520e+02	2.912778e+02	2.913612e+02	2.914744e+02	2.915658e+02	2.915220e+02	2.915830e+02	2.915063e+02	2.914202e+02	2.913228e+02	2.909450e+02	2.905041e+02	2.899235e+02	2.892267e+02	2.884176e+02	2.874732e+02	2.865118e+02	2.853311e+02	2.840979e+02	2.828271e+02	2.813424e+02	2.798299e+02	2.781934e+02	2.763215e+02	2.748796e+02	2.729826e+02	2.710215e+02	2.696614e+02	2.682313e+02	2.673998e+02	2.664314e+02	2.660908e+02	2.668995e+02	2.678980e+02	2.700154e+02	2.723185e+02	2.744638e+02	2.770744e+02	2.792227e+02	2.809093e+02	2.825589e+02	2.835676e+02	2.841728e+02	2.844187e+02	2.840929e+02	2.834400e+02	2.826386e+02	2.814795e+02	2.803096e+02	2.799411e+02	2.795068e+02	2.798090e+02	2.811050e+02	2.823863e+02	2.838916e+02	2.854154e+02	2.864583e+02	2.874371e+02	2.880425e+02	2.872269e+02	2.861179e+02	2.846806e+02	2.821105e+02	2.678200e+02	2.279872e+02	2.122032e+02	2.122419e+02	2.233718e+02	2.355185e+02	2.526619e+02	2.598753e+02	2.671067e+02	2.748351e+02	2.796924e+02	2.840579e+02	2.876226e+02	2.899966e+02	2.918459e+02	2.933296e+02	2.941956e+02	2.949471e+02	2.956377e+02	2.965874e+02	2.982006e+02	3.003066e+02	3.019006e+02	3.014127e+02	
SCALARS Mach double 1
LOOKUP_TABLE default
5.057667e-01	7.212256e-01	7.854257e-01	8.710894e-01	9.245362e-01	9.565853e-01	9.714886e-01	1.001385e+00	1.055751e+00	1.127993e+00	1.225304e+00	1.363496e+00	1.522638e+00	1.577104e+00	1.303337e+00	7.318623e-01	4.480865e-01	3.721104e-01	3.319331e-01	3.323029e-01	3.581627e-01	4.033076e-01	4.626079e-01	5.336166e-01	6.025591e-01	6.908514e-01	7.832860e-01	8.622147e-01	9.660233e-01	1.051467e+00	1.098046e+00	1.160223e+00	1.185840e+00	1.099382e+00	8.349826e-01	6.972546e-01	6.440870e-01	6.159702e-01	5.978837e-01	5.863467e-01	5.826142e-01	5.812454e-01	5.899417e-01	6.015105e-01	6.182169e-01	6.425939e-01	6.704929e-01	7.084158e-01	7.580859e-01	8.080548e-01	8.681566e-01	9.408135e-01	1.008234e+00	1.083624e+00	1.158357e+00	1.203400e+00	1.258872e+00	1.303393e+00	1.324346e+00	1.340833e+00	1.344420e+00	1.336703e+00	1.337552e+00	1.320012e+00	1.147174e+00	8.360604e-01	7.250221e-01	7.056655e-01	7.033439e-01	6.921914e-01	6.768324e-01	6.596493e-01	6.258249e-01	5.920443e-01	5.579530e-01	5.217907e-01	4.938656e-01	4.671461e-01	4.468690e-01	4.340909e-01	4.217985e-01	4.152494e-01	4.122134e-01	4.079988e-01	4.066012e-01	4.046932e-01	4.015837e-01	3.986218e-01	3.941540e-01	3.884856e-01	3.826826e-01	3.760571e-01	3.691767e-01	3.616571e-01	3.535975e-01	3.450552e-01	3.342944e-01	3.215979e-01	3.015371e-01	3.486623e-01	4.827137e-01	4.653666e-01	4.534166e-01	4.537618e-01	4.503761e-01	4.478196e-01	4.457349e-01	4.430290e-01	4.406613e-01	4.391992e-01	4.368240e-01	4.352628e-01	4.326803e-01	4.309609e-01	4.286184e-01	4.267189e-01	4.276293e-01	4.263594e-01	4.279566e-01	4.297410e-01	4.317533e-01	4.394845e-01	4.483613e-01	4.598290e-01	4.732850e-01	4.885211e-01	5.058288e-01	5.229714e-01	5.434343e-01	5.641878e-01	5.849814e-01	6.086009e-01	6.319992e-01	6.566470e-01	6.840896e-01	7.047409e-01	7.313395e-01	7.582262e-01	7.765481e-01	7.955501e-01	8.064835e-01	8.191172e-01	8.235365e-01	8.130232e-01	7.999415e-01	7.718032e-01	7.405104e-01	7.106246e-01	6.731412e-01	6.412213e-01	6.153662e-01	5.893000e-01	5.729337e-01	5.629438e-01	5.588453e-01	5.642694e-01	5.750235e-01	5.880182e-01	6.064489e-01	6.246453e-01	6.302994e-01	6.369178e-01	6.323182e-01	6.123156e-01	5.920670e-01	5.676024e-01	5.419937e-01	5.239135e-01	5.064818e-01	4.954553e-01	5.102653e-01	5.298681e-01	5.544565e-01	5.964667e-01	8.009683e-01	1.275623e+00	1.456075e+00	1.455630e+00	1.328213e+00	1.189660e+00	9.899531e-01	9.022302e-01	8.103186e-01	7.053725e-01	6.340947e-01	5.648498e-01	5.031236e-01	4.583992e-01	4.208498e-01	3.884958e-01	3.684654e-01	3.502578e-01	3.327385e-01	3.071624e-01	2.584366e-01	1.767964e-01	6.851148e-02	1.131099e-01	
SCALARS Pressure_Coefficient double 1
LOOKUP_TABLE default