# vtk DataFile Version 3.0
vtk output
ASCII
DATASET UNSTRUCTURED_GRID
POINTS 1854 double
1.000000e+02	0.000000e+00	0.0	9.917900e+01	1.278772e+01	0.0	9.672949e+01	2.536546e+01	0.0	9.269168e+01	3.752670e+01	0.0	8.713187e+01	4.907176e+01	0.0	8.014136e+01	5.981105e+01	0.0	7.183494e+01	6.956826e+01	0.0	6.234898e+01	7.818315e+01	0.0	5.183926e+01	8.551428e+01	0.0	4.047833e+01	9.144126e+01	0.0	2.845276e+01	9.586679e+01	0.0	1.595999e+01	9.871818e+01	0.0	3.205158e+00	9.994862e+01	0.0	-9.602303e+00	9.953791e+01	0.0	-2.225209e+01	9.749279e+01	0.0	-3.453651e+01	9.384684e+01	0.0	-4.625383e+01	8.865993e+01	0.0	-5.721167e+01	8.201723e+01	0.0	-6.723009e+01	7.402780e+01	0.0	-7.614460e+01	6.482284e+01	0.0	-8.380881e+01	5.455349e+01	0.0	-9.009689e+01	4.338837e+01	0.0	-9.490557e+01	3.151082e+01	0.0	-9.815592e+01	1.911586e+01	0.0	-9.979454e+01	6.407022e+00	0.0	-9.979454e+01	-6.407022e+00	0.0	-9.815592e+01	-1.911586e+01	0.0	-9.490557e+01	-3.151082e+01	0.0	-9.009689e+01	-4.338837e+01	0.0	-8.380881e+01	-5.455349e+01	0.0	-7.614460e+01	-6.482284e+01	0.0	-6.723009e+01	-7.402780e+01	0.0	-5.721167e+01	-8.201723e+01	0.0	-4.625383e+01	-8.865993e+01	0.0	-3.453651e+01	-9.384684e+01	0.0	-2.225209e+01	-9.749279e+01	0.0	-9.602303e+00	-9.953791e+01	0.0	3.205158e+00	-9.994862e+01	0.0	1.595999e+01	-9.871818e+01	0.0	2.845276e+01	-9.586679e+01	0.0	4.047833e+01	-9.144126e+01	0.0	5.183926e+01	-8.551428e+01	0.0	6.234898e+01	-7.818315e+01	0.0	7.183494e+01	-6.956826e+01	0.0	8.014136e+01	-5.981105e+01	0.0	8.713187e+01	-4.907176e+01	0.0	9.269168e+01	-3.752670e+01	0.0	9.672949e+01	-2.536546e+01	0.0	9.917900e+01	-1.278772e+01	0.0	0.000000e+00	0.000000e+00	0.0	3.012765e-03	3.990394e-03	0.0	6.138470e-03	8.130377e-03	0.0	1.056156e-02	1.116892e-02	0.0	1.521912e-02	1.423252e-02	0.0	2.057087e-02	1.641468e-02	0.0	2.612970e-02	1.863259e-02	0.0	3.204303e-02	2.049100e-02	0.0	3.818023e-02	2.235342e-02	0.0	4.460631e-02	2.400852e-02	0.0	5.129101e-02	2.553244e-02	0.0	5.827397e-02	2.676141e-02	0.0	6.554496e-02	2.754933e-02	0.0	7.308821e-02	2.805646e-02	0.0	8.088617e-02	2.790302e-02	0.0	8.892819e-02	2.783504e-02	0.0	9.721677e-02	2.797148e-02	0.0	1.056865e-01	2.889362e-02	0.0	1.143697e-01	3.024961e-02	0.0	1.230602e-01	3.266194e-02	0.0	1.319066e-01	3.550932e-02	0.0	1.408999e-01	3.869836e-02	0.0	1.500162e-01	4.229667e-02	0.0	1.593682e-01	4.598800e-02	0.0	1.690242e-01	4.959078e-02	0.0	1.789242e-01	5.325757e-02	0.0	1.891218e-01	5.681038e-02	0.0	1.997765e-01	5.974516e-02	0.0	2.106648e-01	6.274426e-02	0.0	2.219478e-01	6.504127e-02	0.0	2.335697e-01	6.687191e-02	0.0	2.454215e-01	6.869362e-02	0.0	2.576034e-01	6.958322e-02	0.0	2.699991e-01	7.048845e-02	0.0	2.826172e-01	7.106717e-02	0.0	2.954485e-01	7.133781e-02	0.0	3.084692e-01	7.160787e-02	0.0	3.216722e-01	7.152059e-02	0.0	3.350445e-01	7.143220e-02	0.0	3.485717e-01	7.116071e-02	0.0	3.622423e-01	7.071416e-02	0.0	3.760469e-01	7.025193e-02	0.0	3.899532e-01	6.936697e-02	0.0	4.039681e-01	6.847509e-02	0.0	4.180566e-01	6.731169e-02	0.0	4.322078e-01	6.591662e-02	0.0	4.464243e-01	6.450297e-02	0.0	4.606716e-01	6.288277e-02	0.0	4.749561e-01	6.125833e-02	0.0	4.892850e-01	5.984970e-02	0.0	5.036379e-01	5.860505e-02	0.0	5.179880e-01	5.745184e-02	0.0	5.323627e-01	5.721322e-02	0.0	5.466998e-01	5.697523e-02	0.0	5.609622e-01	5.752682e-02	0.0	5.751441e-01	5.856471e-02	0.0	5.892387e-01	5.966443e-02	0.0	6.031972e-01	6.120552e-02	0.0	6.170475e-01	6.273467e-02	0.0	6.308014e-01	6.398901e-02	0.0	6.444360e-01	6.507657e-02	0.0	6.579290e-01	6.599716e-02	0.0	6.712997e-01	6.576779e-02	0.0	6.845010e-01	6.554133e-02	0.0	6.974652e-01	6.449348e-02	0.0	7.102041e-01	6.293244e-02	0.0	7.227327e-01	6.131397e-02	0.0	7.349186e-01	5.886910e-02	0.0	7.468943e-01	5.646642e-02	0.0	7.585805e-01	5.378677e-02	0.0	7.699935e-01	5.092978e-02	0.0	7.811706e-01	4.809287e-02	0.0	7.920614e-01	4.510278e-02	0.0	8.027186e-01	4.217683e-02	0.0	8.131263e-01	3.927107e-02	0.0	8.232918e-01	3.642170e-02	0.0	8.332368e-01	3.371750e-02	0.0	8.429575e-01	3.114963e-02	0.0	8.524497e-01	2.871356e-02	0.0	8.617560e-01	2.658344e-02	0.0	8.708151e-01	2.450991e-02	0.0	8.796718e-01	2.270005e-02	0.0	8.882917e-01	2.098721e-02	0.0	8.966747e-01	1.936876e-02	0.0	9.048312e-01	1.788858e-02	0.0	9.127457e-01	1.645233e-02	0.0	9.204248e-01	1.508221e-02	0.0	9.278685e-01	1.375929e-02	0.0	9.350769e-01	1.246656e-02	0.0	9.420522e-01	1.119474e-02	0.0	9.488018e-01	9.963706e-03	0.0	9.553245e-01	8.743474e-03	0.0	9.616300e-01	7.563861e-03	0.0	9.677188e-01	6.402975e-03	0.0	9.735988e-01	5.278002e-03	0.0	9.792718e-01	4.173299e-03	0.0	9.847448e-01	3.099890e-03	0.0	9.900214e-01	2.051003e-03	0.0	9.951056e-01	1.021521e-03	0.0	1.000000e+00	0.000000e+00	0.0	9.950063e-01	2.422552e-04	0.0	9.898235e-01	4.311480e-04	0.0	9.844480e-01	5.689384e-04	0.0	9.788755e-01	6.636547e-04	0.0	9.731018e-01	7.348567e-04	0.0	9.671222e-01	7.501826e-04	0.0	9.609325e-01	7.435344e-04	0.0	9.545284e-01	6.724418e-04	0.0	9.479056e-01	5.862616e-04	0.0	9.410613e-01	4.047198e-04	0.0	9.339898e-01	2.171534e-04	0.0	9.266909e-01	-7.319801e-05	0.0	9.191584e-01	-3.971893e-04	0.0	9.113903e-01	-7.702949e-04	0.0	9.033853e-01	-1.226958e-03	0.0	8.951372e-01	-1.697486e-03	0.0	8.866485e-01	-2.256411e-03	0.0	8.779136e-01	-2.844298e-03	0.0	8.689321e-01	-3.476714e-03	0.0	8.597042e-01	-4.170637e-03	0.0	8.502266e-01	-4.885055e-03	0.0	8.405054e-01	-5.700231e-03	0.0	8.305349e-01	-6.536318e-03	0.0	8.203266e-01	-7.508088e-03	0.0	8.098753e-01	-8.540771e-03	0.0	7.991917e-01	-9.706712e-03	0.0	7.882783e-01	-1.100265e-02	0.0	7.771343e-01	-1.237860e-02	0.0	7.657818e-01	-1.397281e-02	0.0	7.542016e-01	-1.559900e-02	0.0	7.424237e-01	-1.742128e-02	0.0	7.304363e-01	-1.931896e-02	0.0	7.182475e-01	-2.129448e-02	0.0	7.058768e-01	-2.341911e-02	0.0	6.933134e-01	-2.557684e-02	0.0	6.805823e-01	-2.785799e-02	0.0	6.676837e-01	-3.020816e-02	0.0	6.546239e-01	-3.260363e-02	0.0	6.414301e-01	-3.513139e-02	0.0	6.280944e-01	-3.768635e-02	0.0	6.146434e-01	-4.034151e-02	0.0	6.010863e-01	-4.307940e-02	0.0	5.874242e-01	-4.583848e-02	0.0	5.737020e-01	-4.876881e-02	0.0	5.599016e-01	-5.171603e-02	0.0	5.460458e-01	-5.471848e-02	0.0	5.321510e-01	-5.778411e-02	0.0	5.182201e-01	-6.085771e-02	0.0	5.041950e-01	-6.358363e-02	0.0	4.901537e-01	-6.626745e-02	0.0	4.760619e-01	-6.857126e-02	0.0	4.618877e-01	-7.018560e-02	0.0	4.477501e-01	-7.179576e-02	0.0	4.335871e-01	-7.191218e-02	0.0	4.194763e-01	-7.176457e-02	0.0	4.054853e-01	-7.103870e-02	0.0	3.916600e-01	-6.927070e-02	0.0	3.779409e-01	-6.751628e-02	0.0	3.644275e-01	-6.521253e-02	0.0	3.510618e-01	-6.281967e-02	0.0	3.378254e-01	-6.052913e-02	0.0	3.247102e-01	-5.845739e-02	0.0	3.117598e-01	-5.641168e-02	0.0	2.989021e-01	-5.507279e-02	0.0	2.861998e-01	-5.400140e-02	0.0	2.736858e-01	-5.305389e-02	0.0	2.613467e-01	-5.258451e-02	0.0	2.492189e-01	-5.212318e-02	0.0	2.373096e-01	-5.165735e-02	0.0	2.256250e-01	-5.119312e-02	0.0	2.141732e-01	-5.069111e-02	0.0	2.029914e-01	-4.966195e-02	0.0	1.920476e-01	-4.865470e-02	0.0	1.813836e-01	-4.735472e-02	0.0	1.710000e-01	-4.578082e-02	0.0	1.608611e-01	-4.424402e-02	0.0	1.510152e-01	-4.246672e-02	0.0	1.414197e-01	-4.070846e-02	0.0	1.320694e-01	-3.900288e-02	0.0	1.229629e-01	-3.735792e-02	0.0	1.141025e-01	-3.575741e-02	0.0	1.054601e-01	-3.436239e-02	0.0	9.705350e-02	-3.305853e-02	0.0	8.888642e-02	-3.181403e-02	0.0	8.095055e-02	-3.066920e-02	0.0	7.325298e-02	-2.955875e-02	0.0	6.580585e-02	-2.838322e-02	0.0	5.859283e-02	-2.722824e-02	0.0	5.165050e-02	-2.588231e-02	0.0	4.495632e-02	-2.444522e-02	0.0	3.856322e-02	-2.273453e-02	0.0	3.243444e-02	-2.087569e-02	0.0	2.668528e-02	-1.859767e-02	0.0	2.121065e-02	-1.620235e-02	0.0	1.619322e-02	-1.334471e-02	0.0	1.150536e-02	-1.034520e-02	0.0	7.144343e-03	-7.199181e-03	0.0	3.255277e-03	-3.770429e-03	0.0	8.094918e-02	-7.076586e-02	0.0	7.398282e-02	-5.513277e-02	0.0	6.341923e-02	-6.459596e-02	0.0	8.675940e+01	2.708540e+01	0.0	8.233258e+01	3.607385e+01	0.0	7.725214e+01	2.665184e+01	0.0	7.570475e+01	-1.239835e+01	0.0	7.578204e+01	-2.487994e+01	0.0	8.704083e+01	-1.784252e+01	0.0	8.662609e+01	-4.286353e+00	0.0	3.308359e+01	2.262458e+01	0.0	4.453638e+01	2.793478e+01	0.0	3.690162e+01	3.525629e+01	0.0	7.331863e+01	3.434914e+01	0.0	6.884466e+01	-3.556494e+01	0.0	7.561767e+01	-4.388679e+01	0.0	8.119000e+01	-3.650171e+01	0.0	8.668680e+01	-2.842327e+01	0.0	5.353801e+01	2.246050e+01	0.0	4.311838e+01	1.816037e+01	0.0	5.121561e+01	1.224092e+01	0.0	5.675187e+01	-6.359524e+01	0.0	5.595260e+01	-5.351087e+01	0.0	4.895236e+01	-6.406824e+01	0.0	6.878703e+01	5.947926e+01	0.0	7.281902e+01	5.060785e+01	0.0	5.860005e+01	6.473406e+01	0.0	4.597688e+01	-7.383263e+01	0.0	5.459839e+01	-7.216336e+01	0.0	6.646577e+01	-4.652363e+01	0.0	4.866850e+01	7.233133e+01	0.0	2.662529e+01	6.806402e+01	0.0	2.982028e+01	5.714679e+01	0.0	3.623624e+01	6.964890e+01	0.0	6.292468e+01	-6.725879e+01	0.0	3.059808e+01	8.615329e+01	0.0	3.973510e+01	8.050877e+01	0.0	3.723950e+01	-6.601378e+01	0.0	2.429159e+01	-7.290328e+01	0.0	3.833425e+01	-7.962570e+01	0.0	6.374867e+00	4.653157e+01	0.0	-4.329039e+00	4.401297e+01	0.0	2.981339e+00	3.792906e+01	0.0	2.810376e-02	-2.425134e-02	0.0	3.049132e-02	-2.975944e-02	0.0	3.325124e-02	-2.527954e-02	0.0	4.807429e-03	-6.819498e-02	0.0	2.178102e-02	-5.954438e-02	0.0	1.220621e-02	-4.728117e-02	0.0	1.740326e-01	7.752949e-02	0.0	1.631083e-01	8.524702e-02	0.0	1.636995e-01	7.370644e-02	0.0	5.181502e-01	-8.301018e-02	0.0	5.211688e-01	-9.848038e-02	0.0	5.335246e-01	-8.948475e-02	0.0	9.171737e-01	2.088460e-02	0.0	9.148382e-01	4.527863e-02	0.0	9.122200e-01	6.138195e-02	0.0	9.005755e-01	5.096622e-02	0.0	9.423750e-01	2.543773e-02	0.0	9.386212e-01	1.742948e-02	0.0	9.440941e-01	1.749618e-02	0.0	9.059895e-01	3.024493e-02	0.0	9.151412e-01	2.795258e-02	0.0	9.128416e-01	3.522999e-02	0.0	9.330643e-01	1.689202e-02	0.0	8.960771e-01	-9.366444e-03	0.0	9.034487e-01	-1.300468e-02	0.0	9.010356e-01	-6.397383e-03	0.0	8.490936e-01	-2.065082e-02	0.0	8.543873e-01	-1.154097e-02	0.0	8.467706e-01	-1.179526e-02	0.0	6.266988e-01	-3.262875e-01	0.0	6.557532e-01	-2.386061e-01	0.0	5.832564e-01	-2.396547e-01	0.0	1.586876e-01	-8.676432e-02	0.0	1.779067e-01	-9.924921e-02	0.0	1.788488e-01	-
[...]
POINT_DATA 1854

SCALARS Density double 1
LOOKUP_TABLE default
1.291474e+00	1.291531e+00	1.292015e+00	1.292194e+00	1.292084e+00	1.292002e+00	1.291962e+00	1.291904e+00	1.291833e+00	1.291762e+00	1.291709e+00	1.291684e+00	1.291694e+00	1.291754e+00	1.291854e+00	1.291956e+00	1.292048e+00	1.292116e+00	1.292172e+00	1.292212e+00	1.292242e+00	1.292263e+00	1.292280e+00	1.292294e+00	1.292306e+00	1.292318e+00	1.292331e+00	1.292347e+00	1.292365e+00	1.292390e+00	1.292422e+00	1.292464e+00	1.292516e+00	1.292581e+00	1.292665e+00	1.292750e+00	1.292843e+00	1.292910e+00	1.292922e+00	1.292892e+00	1.292836e+00	1.292755e+00	1.292674e+00	1.292589e+00	1.292502e+00	1.292434e+00	1.292447e+00	1.292352e+00	1.291925e+00	1.580331e+00	1.241246e+00	1.157797e+00	1.043965e+00	9.610343e-01	9.082917e-01	9.124729e-01	9.204369e-01	9.383617e-01	9.202119e-01	9.067312e-01	9.137200e-01	9.948450e-01	1.130713e+00	1.239995e+00	1.317647e+00	1.365671e+00	1.385581e+00	1.391135e+00	1.382882e+00	1.349590e+00	1.324435e+00	1.285418e+00	1.231696e+00	1.188219e+00	1.138412e+00	1.061027e+00	1.001882e+00	9.464026e-01	8.700689e-01	8.424919e-01	7.913572e-01	7.436044e-01	7.318511e-01	7.063915e-01	6.951252e-01	6.853500e-01	6.764876e-01	6.750419e-01	6.661891e-01	6.626436e-01	6.481644e-01	6.335404e-01	6.251987e-01	6.086678e-01	6.034188e-01	5.953588e-01	5.891530e-01	6.040038e-01	7.191909e-01	1.014691e+00	1.207880e+00	1.228540e+00	1.223832e+00	1.226867e+00	1.203427e+00	1.182504e+00	1.155553e+00	1.106162e+00	1.061192e+00	1.018809e+00	9.338068e-01	8.740226e-01	8.335280e-01	7.682064e-01	7.392767e-01	7.375133e-01	8.250836e-01	1.006440e+00	1.076836e+00	1.104624e+00	1.123078e+00	1.145988e+00	1.169913e+00	1.186898e+00	1.205143e+00	1.219896e+00	1.230669e+00	1.242730e+00	1.248060e+00	1.251675e+00	1.256350e+00	1.255558e+00	1.258527e+00	1.259740e+00	1.259704e+00	1.261762e+00	1.262843e+00	1.264722e+00	1.267701e+00	1.270650e+00	1.274184e+00	1.278112e+00	1.281972e+00	1.286974e+00	1.291869e+00	1.298205e+00	1.307537e+00	1.311203e+00	1.313905e+00	1.430408e+00	1.386017e+00	1.386671e+00	1.390678e+00	1.389390e+00	1.390190e+00	1.390242e+00	1.391364e+00	1.391121e+00	1.391097e+00	1.391358e+00	1.389098e+00	1.389395e+00	1.387376e+00	1.386385e+00	1.385445e+00	1.383120e+00	1.382941e+00	1.381258e+00	1.381609e+00	1.381048e+00	1.381651e+00	1.381821e+00	1.381592e+00	1.381837e+00	1.379423e+00	1.379340e+00	1.375728e+00	1.372091e+00	1.369334e+00	1.362604e+00	1.359426e+00	1.353555e+00	1.347737e+00	1.343053e+00	1.335444e+00	1.330726e+00	1.323619e+00	1.316594e+00	1.309938e+00	1.299867e+00	1.293329e+00	1.282925e+00	1.268404e+00	1.255214e+00	1.236476e+00	1.213282e+00	1.194583e+00	1.071702e+00	8.489276e-01	7.603430e-01	7.612114e-01	8.208746e-01	9.065591e-01	9.450237e-01	1.028363e+00	1.101466e+00	1.151103e+00	1.216448e+00	1.260339e+00	1.288629e+00	1.323402e+00	1.343453e+00	1.338292e+00	1.344566e+00	1.337331e+00	1.318186e+00	1.306754e+00	1.291120e+00	1.262207e+00	1.253311e+00	1.255194e+00	1.250393e+00	1.268042e+00	1.280371e+00	1.295344e+00	1.320149e+00	1.336999e+00	1.350715e+00	1.366678e+00	1.377517e+00	1.379939e+00	1.384486e+00	1.385654e+00	1.381610e+00	1.381532e+00	1.377274e+00	1.375581e+00	1.376649e+00	1.384233e+00	1.395071e+00	1.418460e+00	1.448820e+00	1.484519e+00	1.535517e+00	1.576380e+00	1.607976e+00	1.693817e+00	1.385616e+00	1.390168e+00	1.397620e+00	1.292091e+00	1.292100e+00	1.292041e+00	1.292127e+00	1.292370e+00	1.292202e+00	1.291794e+00	1.291751e+00	1.291913e+00	1.291735e+00	1.292053e+00	1.292451e+00	1.292444e+00	1.292398e+00	1.292369e+00	1.292046e+00	1.291965e+00	1.291851e+00	1.292654e+00	1.292613e+00	1.292722e+00	1.291951e+00	1.291989e+00	1.291889e+00	1.292770e+00	1.292700e+00	1.292498e+00	1.291813e+00	1.291598e+00	1.291600e+00	1.291699e+00	1.292629e+00	1.291696e+00	1.291748e+00	1.292844e+00	1.292959e+00	1.292843e+00	1.291051e+00	1.291003e+00	1.290786e+00	1.450061e+00	1.443392e+00	1.425726e+00	1.461080e+00	1.452742e+00	1.479845e+00	1.166821e+00	1.202276e+00	1.209530e+00	1.200813e+00	1.199796e+00	1.237574e+00	1.263757e+00	1.272523e+00	1.274263e+00	1.268864e+00	1.276218e+00	1.269985e+00	1.272808e+00	1.264990e+00	1.266805e+00	1.269456e+00	1.266910e+00	1.386448e+00	1.387797e+00	1.386688e+00	1.383918e+00	1.382576e+00	1.382357e+00	1.282330e+00	1.306836e+00	1.262324e+00	1.318609e+00	1.307104e+00	1.298657e+00	1.282365e+00	1.269631e+00	1.266596e+00	1.206526e+00	1.171038e+00	1.164269e+00	1.118245e+00	1.142419e+00	1.391144e+00	1.390915e+00	1.390918e+00	1.391150e+00	1.390586e+00	1.390349e+00	1.390088e+00	1.319551e+00	1.321418e+00	1.334986e+00	1.305178e+00	1.287682e+00	1.307444e+00	1.278709e+00	1.264960e+00	1.275118e+00	1.332555e+00	1.287582e+00	1.285718e+00	1.390458e+00	1.390646e+00	1.391051e+00	1.281445e+00	1.276761e+00	1.386979e+00	1.386599e+00	1.383260e+00	1.023763e+00	1.080874e+00	1.353378e+00	1.348124e+00	1.358674e+00	1.298573e+00	1.305915e+00	1.295514e+00	1.365105e+00	1.367936e+00	1.313172e+00	1.304704e+00	1.307648e+00	1.332898e+00	1.324914e+00	1.322143e+00	1.350912e+00	1.348954e+00	1.368380e+00	1.372618e+00	1.350472e+00	1.344185e+00	1.358564e+00	1.389455e+00	1.389769e+00	1.386707e+00	1.387740e+00	1.388331e+00	1.384160e+00	1.383129e+00	1.514663e+00	1.546125e+00	1.534455e+00	1.520985e+00	1.522880e+00	1.548945e+00	1.465581e+00	1.433613e+00	1.442707e+00	1.385670e+00	1.386482e+00	1.383835e+00	1.595600e+00	1.572075e+00	1.573001e+00	1.295259e+00	1.296273e+00	1.298003e+00	1.356295e+00	1.367850e+00	1.362554e+00	1.343367e+00	1.347303e+00	1.352775e+00	1.358198e+00	1.362615e+00	1.362334e+00	1.381557e+00	1.383813e+00	1.382926e+00	1.327394e+00	1.334735e+00	1.330463e+00	1.372526e+00	1.371194e+00	1.376806e+00	1.265116e+00	1.232953e+00	1.272899e+00	1.232224e+00	1.187537e+00	1.180412e+00	1.228662e+00	1.224663e+00	1.232398e+00	1.053054e+00	1.015027e+00	1.309424e+00	1.343560e+00	1.329112e+00	9.996453e-01	1.205098e+00	1.122730e+00	1.204162e+00	1.039156e+00	1.065237e+00	1.342474e+00	8.994259e-01	8.575137e-01	1.322657e+00	1.320987e+00	1.376389e+00	1.118503e+00	1.001046e+00	1.131702e+00	1.382367e+00	1.369112e+00	8.258151e-01	9.847677e-01	9.155652e-01	9.126469e-01	1.350470e+00	1.272797e+00	1.246588e+00	1.256948e+00	1.236107e+00	1.258105e+00	1.277557e+00	1.281908e+00	1.105158e+00	1.159274e+00	1.107765e+00	1.299254e+00	1.301210e+00	1.306217e+00	1.264050e+00	1.270398e+00	1.254407e+00	1.248410e+00	1.252011e+00	1.302932e+00	1.299172e+00	1.298657e+00	1.310826e+00	1.311574e+00	1.364958e+00	1.336236e+00	1.372807e+00	1.312383e+00	1.312739e+00	1.308813e+00	1.302352e+00	1.306272e+00	1.306363e+00	1.234010e+00	1.239535e+00	1.243031e+00	1.295416e+00	1.306774e+00	1.296167e+00	1.299447e+00	1.302959e+00	1.287712e+00	1.224599e+00	1.313993e+00	1.286207e+00	1.316633e+00	1.284521e+00	1.294153e+00	1.294149e+00	1.281537e+00	1.288756e+00	1.284811e+00	1.291028e+00	1.291468e+00	1.291301e+00	1.291558e+00	1.291560e+00	1.291605e+00	1.172924e+00	1.244038e+00	1.212949e+00	1.193298e+00	1.189264e+00	1.145336e+00	1.129991e+00	1.145572e+00	1.291486e+00	1.291242e+00	1.291360e+00	1.181086e+00	1.187412e+00	1.116589e+00	1.075263e+00	1.109485e+00	1.290244e+00	1.290268e+00	1.103393e+00	1.090193e+00	1.187147e+00	1.167415e+00	1.164866e+00	1.206723e+00	1.203560e+00	1.132594e+00	1.189034e+00	1.388989e+00	1.385115e+00	1.385113e+00	1.384067e+00	1.037827e+00	1.067296e+00	1.031713e+00	9.802147e-01	1.146176e+00	1.224137e+00	1.214356e+00	9.894820e-01	1.032378e+00	1.216209e+00	1.218118e+00	1.216518e+00	1.179304e+00	8.715733e-01	1.005935e+00	1.067411e+00	1.383462e+00	1.383095e+00	1.382590e+00	1.375137e+00	1.375065e+00	1.380981e+00	1.382215e+00	1.379893e+00	1.378814e+00	1.377099e+00	1.323730e+00	1.315727e+00	1.319556e+00	1.315985e+00	1.279531e+00	8.291987e-01	7.960903e-01	7.235406e-01	8.836030e-01	8.319311e-01	6.755851e-01	7.003830e-01	6.404985e-01	6.171790e-01	5.858455e-01	5.912811e-01	5.974675e-01	1.256899e+00	1.197893e+00	1.266830e+00	1.236134e+00	6.055894e-01	7.982219e-01	6.216074e-01	7.280533e-01	7.032850e-01	7.068621e-01	6.838205e-01	6.947589e-01	6.811755e-01	6.703399e-01	1.291850e+00	1.291737e+00	8.596621e-01	9.869044e-01	9.331433e-01	7.192415e-01	7.021559e-01	7.156862e-01	8.133091e-01	7.608810e-01	7.750538e-01	1.291796e+00	8.303781e-01	8.545265e-01	8.875957e-01	7.387194e-01	1.253099e+00	1.254427e+00	1.286552e+00	1.291909e+00	1.281119e+00	1.331821e+00	1.318364e+00	1.235819e+00	1.182295e+00	1.270995e+00	1.117970e+00	1.062954e+00	9.827252e-01	9.553347e-01	1.291986e+00	1.292162e+00	1.291320e+00	1.291663e+00	1.291842e+00	1.291739e+00	1.291837e+00	1.292185e+00	1.292189e+00	1.292179e+00	1.292143e+00	1.288082e+00	1.288075e+00	1.284518e+00	1.287421e+00	1.292288e+00	1.292262e+00	1.292280e+00	1.292227e+00	1.292225e+00	1.292320e+00	1.292340e+00	1.292355e+00	1.292369e+00	1.292463e+00	1.292531e+00	1.292524e+00	1.292465e+00	1.292553e+00	1.292412e+00	1.292393e+00	1.292546e+00	1.292503e+00	1.292457e+00	1.292439e+00	1.292655e+00	1.292377e+00	1.292612e+00	1.283703e+00	1.308512e+00	1.292544e+00	1.293590e+00	1.294564e+00	1.293772e+00	1.207067e+00	1.074075e+00	1.292674e+00	1.305137e+00	1.303605e+00	1.309754e+00	1.292824e+00	1.292704e+00	1.292761e+00	1.293460e+00	1.293440e+00	1.293263e+00	1.400430e+00	1.382334e+00	1.370893e+00	1.288579e+00	1.228326e+00	1.173629e+00	1.217411e+00	1.060994e+00	1.116186e+00	9.182795e-01	8.441584e-01	9.210664e-01	1.265580e+00	1.234392e+00	1.242192e+00	9.998462e-01	8.435443e-01	8.877786e-01	8.349617e-01	1.010654e+00	9.531521e-01	9.885812e-01	1.215393e+00	1.205372e+00	1.236807e+00	1.252148e+00	1.268354e+00	1.234430e+00	1.284647e+00	1.264018e+00	1.292954e+00	1.292904e+00	1.322474e+00	1.334150e+00	1.325091e+00	1.292999e+00	1.292877e+00	1.293024e+00	1.580932e+00	1.605315e+00	1.572857e+00	1.293015e+00	1.292958e+00	1.373003e+00	1.382594e+00	1.384852e+00	1.385403e+00	1.385286e+00	1.292700e+00	1.405794e+00	1.293842e+00	1.294095e+00	1.294703e+00	1.292306e+00	1.269240e+00	1.282437e+00	1.282400e+00	1.085343e+00	1.054721e+00	1.117004e+00	1.291911e+00	1.292070e+00	1.291944e+00	1.292974e+00	1.293031e+00	1.292740e+00	1.390982e+00	1.292966e+00	1.292818e+00	1.292958e+00	1.292820e+00	1.292948e+00	1.293030e+00	1.292366e+00	1.292327e+00	1.292331e+00	1.291747e+00	1.291862e+00	1.291921e+00	1.292137e+00	1.292950e+00	1.293641e+00	1.291657e+00	1.291627e+00	1.291708e+00	1.291610e+00	1.291935e+00	1.291815e+00	1.292550e+00	1.292558e+00	1.292490e+00	1.291812e+00	1.291912e+00	1.292044e+00	1.293435e+00	1.294231e+00	1.295375e+00	9.487676e-01	1.292152e+00	1.292229e+00	1.292231e+00	1.374085e+00	1.346373e+00	1.359892e+00	1.292299e+00	1.292039e+00	1.291755e+00	1.289406e+00	1.293553e+00	1.293534e+00	1.292878e+00	1.292738e+00	1.292700e+00	1.292633e+00	1.292397e+00	1.292437e+00	1.292283e+00	1.292123e+00	1.292183e+00	1.292077e+00	1.291630e+00	1.291681e+00	1.293021e+00	1.293200e+00	1.293096e+00	1.293189e+00	1.292035e+00	1.291983e+00	1.291903e+00	1.291796e+00	1.291641e+00	1.291898e+00	1.291783e+00	1.291744e+00	1.292325e+00	1.292435e+00	1.292795e+00	1.292748e+00	1.292644e+00	1.292982e+00	1.292656e+00	1.291989e+00	1.291694e+00	1.292463e+00	1.292236e+00	1.309409e+00	1.030314e+00	9.630884e-01	1.291554e+00	1.292463e+00	1.293156e+00	1.293306e+00	1.293084e+00	1.293214e+00	1.291354e+00	1.291559e+00	1.291922e+00	1.292028e+00	1.292297e+00	1.292762e+00	1.291572e+00	1.291599e+00	1.292613e+00	1.294657e+00	1.292103e+00	1.291435e+00	1.293423e+00	1.293748e+00	1.294282e+00	1.292846e+00	1.292481e+00	1.291876e+00	1.291505e+00	1.292252e+00	1.292329e+00	1.292333e+00	1.292359e+00	1.292404e+00	1.292094e+00	1.293088e+00	1.291448e+00	1.291311e+00	1.291661e+00	1.293040e+00	1.291641e+00	1.291852e+00	1.291775e+00	1.292860e+00	1.291997e+00	1.292459e+00	1.292524e+00	1.292601e+00	1.292305e+00	1.292297e+00	1.293110e+00	1.293120e+00	1.293277e+00	1.291839e+00	1.142975e+00	1.183149e+00	1.231843e+00	1.291723e+00	1.291479e+00	1.291772e+00	1.293015e+00	1.292669e+00	1.292991e+00	1.292856e+00	1.291849e+00	1.291712e+00	1.291558e+00	1.290789e+00	1.290226e+00	1.293411e+00	1.292597e+00	1.292446e+00	1.291577e+00	1.291821e+00	1.292060e+00	1.291226e+00	1.292163e+00	1.292125e+00	8.603237e-01	8.822921e-01	9.204815e-01	1.292486e+00	1.292571e+00	1.292176e+00	1.293337e+00	1.291523e+00	1.291769e+00	1.293028e+00	1.291824e+00	1.291818e+00	1.291758e+00	1.292780e+00	1.288296e+00	1.288046e+00	1.285420e+00	1.292574e+00	1.292680e+00	1.291823e+00	1.292194e+00	1.292694e+00	1.292935e+00	1.388931e+00	1.389787e+00	1.389700e+00	1.295567e+00	1.644128e+00	1.622260e+00	1.289893e+00	1.291191e+00	1.291371e+00	1.289264e+00	1.291306e+00	1.291955e+00	1.293010e+00	1.293152e+00	1.324493e+00	1.324670e+00	1.288815e+00	1.286163e+00	1.277419e+00	1.285889e+00	1.291299e+00	1.291109e+00	1.290036e+00	1.294314e+00	7.968112e-01	8.518588e-01	1.322516e+00	1.311856e+00	1.321598e+00	1.292895e+00	1.293825e+00	1.292565e+00	1.295956e+00	1.293661e+00	1.291799e+00	1.289667e+00	1.288046e+00	1.371510e+00	1.321256e+00	1.372284e+00	1.291434e+00	1.298338e+00	1.297591e+00	1.296117e+00	1.296881e+00	1.297878e+00	1.295037e+00	1.299466e+00	1.296658e+00	1.296698e+00	1.291754e+00	1.289027e+00	1.289141e+00	1.290563e+00	1.290166e+00	1.364859e+00	1.361566e+00	1.290752e+00	1.290273e+00	1.283572e+00	1.287392e+00	1.294513e+00	1.295170e+00	1.280328e+00	1.292554e+00	1.280905e+00	1.300058e+00	1.293255e+00	1.291653e+00	1.289908e+00	1.294996e+00	1.294425e+00	1.276671e+00	1.270225e+00	1.296265e+00	1.297866e+00	1.290996e+00	1.290160e+00	1.303290e+00	1.387255e+00	1.386803e+00	1.388670e+00	1.289021e+00	1.298223e+00	1.300369e+00	1.301575e+00	1.302895e+00	1.305840e+00	1.290673e+00	1.286929e+00	1.284639e+00	1.293871e+00	1.294867e+00	1.300928e+00	1.297292e+00	1.300276e+00	1.287823e+00	1.299504e+00	1.301519e+00	1.300131e+00	1.249083e+00	1.269129e+00	1.262594e+00	1.291201e+00	1.306985e+00	1.308769e+00	1.337816e+00	1.324959e+00	1.335294e+00	1.297172e+00	1.298504e+00	1.297867e+00	1.302834e+00	1.101881e+00	1.084158e+00	1.051863e+00	1.307458e+00	1.304876e+00	1.306978e+00	1.306453e+00	1.303039e+00	1.302579e+00	1.300158e+00	1.286476e+00	1.289021e+00	1.269345e+00	1.255732e+00	1.285140e+00	1.302190e+00	1.381493e+00	1.376188e+00	1.398190e+00	1.309552e+00	1.313769e+00	1.311940e+00	1.305965e+00	1.377209e+00	1.349724e+00	1.345632e+00	1.276061e+00	1.291421e+00	1.254792e+00	1.277474e+00	1.256458e+00	1.003004e+00	1.241924e+00	1.311365e+00	1.318406e+00	1.329589e+00	1.327287e+00	1.341005e+00	1.299237e+00	1.307153e+00	1.301741e+00	1.388417e+00	1.289499e+00	1.277650e+00	1.286997e+00	1.291303e+00	1.291909e+00	1.298135e+00	1.293549e+00	1.225273e+00	1.309706e+00	1.187758e+00	1.218466e+00	1.148412e+00	1.251113e+00	1.171771e+00	1.198307e+00	1.307602e+00	1.302603e+00	1.310740e+00	1.281093e+00	1.309079e+00	1.304284e+00	1.334154e+00	1.331222e+00	1.216084e+00	1.303560e+00	1.289104e+00	1.305118e+00	1.308557e+00	1.318798e+00	1.241060e+00	1.264143e+00	1.315391e+00	1.312026e+00	1.314028e+00	1.312928e+00	1.312358e+00	1.305781e+00	1.126567e+00	1.191821e+00	1.248299e+00	1.195740e+00	1.174340e+00	1.053070e+00	1.284115e+00	1.311905e+00	1.385885e+00	1.319960e+00	1.304655e+00	1.325366e+00	1.301323e+00	1.340745e+00	1.318461e+00	1.304299e+00	1.288821e+00	1.292011e+00	1.287967e+00	1.292018e+00	1.258683e+00	1.321657e+00	1.306695e+00	9.971521e-01	1.003842e+00	1.245054e+00	1.088515e+00	1.170020e+00	1.056976e+00	1.027766e+00	1.284440e+00	1.320027e+00	1.144268e+00	6.841100e-01	6.626926e-01	6.594978e-01	1.375405e+00	1.353801e+00	1.364017e+00	1.321703e+00	1.284567e+00	1.308369e+00	1.272529e+00	1.329088e+00	1.338613e+00	1.331454e+00	1.211163e+00	1.294982e+00	1.317429e+00	1.281498e+00	1.279251e+00	1.294428e+00	1.286513e+00	1.297725e+00	1.343832e+00	1.042310e+00	1.020375e+00	1.230545e+00	9.441096e-01	1.122795e+00	1.034713e+00	1.321542e+00	9.876224e-01	1.076765e+00	1.358302e+00	1.331856e+00	1.346383e+00	1.311841e+00	1.284018e+00	1.283441e+00	1.248313e+00	1.324072e+00	1.249104e+00	1.298024e+00	1.332782e+00	1.390150e+00	1.326770e+00	1.329141e+00	1.341395e+00	1.300098e+00	1.164619e+00	1.145683e+00	9.477892e-01	1.085083e+00	9.010521e-01	1.343560e+00	1.305545e+00	1.292435e+00	1.350707e+00	8.862071e-01	6.831679e-01	9.481871e-01	7.715678e-01	1.193427e+00	1.133321e+00	1.338946e+00	1.363167e+00	1.358472e+00	1.367590e+00	1.358183e+00	1.355921e+00	1.367557e+00	1.191511e+00	9.414647e-01	1.315388e+00	1.279436e+00	1.271742e+00	1.290037e+00	1.308334e+00	1.330787e+00	1.289199e+00	1.277502e+00	1.262314e+00	1.285354e+00	1.341255e+00	1.194928e+00	1.196732e+00	1.140587e+00	1.329729e+00	1.264640e+00	1.286902e+00	1.246016e+00	1.240712e+00	1.376949e+00	1.369240e+00	1.371304e+00	1.086629e+00	1.182336e+00	8.975308e-01	8.097783e-01	7.313506e-01	8.384349e-01	1.336946e+00	1.335356e+00	1.307217e+00	1.316972e+00	1.160252e+00	1.367057e+00	1.374755e+00	1.366805e+00	1.419202e+00	1.447275e+00	1.439143e+00	1.481111e+00	1.416918e+00	1.392335e+00	1.404375e+00	1.419533e+00	1.238221e+00	1.268057e+00	1.272871e+00	1.294939e+00	1.300320e+00	1.300068e+00	1.244718e+00	1.338691e+00	1.316628e+00	1.290870e+00	1.362709e+00	1.390721e+00	1.357988e+00	1.383372e+00	1.378659e+00	1.384138e+00	1.265299e+00	1.238515e+00	1.272950e+00	1.273350e+00	1.049011e+00	1.161815e+00	1.154315e+00	1.142372e+00	1.350101e+00	1.362204e+00	1.353768e+00	1.365032e+00	1.354025e+00	1.347043e+00	1.292074e+00	1.293850e+00	1.299724e+00	7.814868e-01	8.719876e-01	8.051199e-01	6.850077e-01	1.394883e+00	1.308114e+00	1.348531e+00	1.327692e+00	1.061012e+00	1.161110e+00	1.177590e+00	1.154002e+00	1.095991e+00	1.410059e+00	1.420921e+00	1.288296e+00	1.236893e+00	1.164561e+00	1.215413e+00	1.302711e+00	1.308334e+00	1.086767e+00	1.318719e+00	1.430105e+00	1.340166e+00	1.379845e+00	1.373468e+00	1.338167e+00	1.284639e+00	1.286289e+00	1.326216e+00	1.312269e+00	6.414136e-01	7.337419e-01	7.854472e-01	1.499401e+00	1.479745e+00	6.960308e-01	9.759804e-01	1.249533e+00	9.127743e-01	1.349253e+00	1.324346e+00	1.306518e+00	1.345823e+00	1.331204e+00	1.339077e+00	1.350912e+00	1.224646e+00	1.257542e+00	1.300942e+00	1.130029e+00	1.186301e+00	1.220334e+00	1.100620e+00	1.122827e+00	9.763819e-01	1.051236e+00	9.749090e-01	1.257762e+00	1.256886e+00	1.263138e+00	1.281382e+00	1.276419e+00	1.288243e+00	1.337071e+00	1.219002e+00	6.528014e-01	1.378651e+00	1.091201e+00	1.386481e+00	1.385552e+00	1.386634e+00	1.376994e+00	1.000342e+00	9.288535e-01	1.008457e+00	7.551529e-01	1.364189e+00	1.371520e+00	1.368172e+00	1.371660e+00	1.074583e+00	1.312668e+00	7.038509e-01	6.346731e-01	7.483976e-01	1.389469e+00	1.357577e+00	1.395830e+00	1.323383e+00	1.298988e+00	1.298369e+00	1.395209e+00	1.230339e+00	1.166894e+00	1.181232e+00	1.127834e+00	1.311644e+00	1.234773e+00	1.186319e+00	1.299487e+00	1.301670e+00	1.303944e+00	1.296796e+00	1.427598e+00	1.177980e+00	1.117030e+00	1.134092e+00	1.237754e+00	1.197957e+00	1.224823e+00	1.341007e+00	1.350025e+00	1.334107e+00	1.338723e+00	1.012385e+00	1.073740e+00	1.385447e+00	1.380642e+00	1.380660e+00	1.390397e+00	1.390383e+00	1.374158e+00	1.351742e+00	1.353039e+00	1.379498e+00	1.380474e+00	1.337475e+00	1.330917e+00	1.035523e+00	1.238744e+00	1.270208e+00	1.289586e+00	1.300871e+00	1.311246e+00	1.307498e+00	1.305201e+00	1.283955e+00	1.377433e+00	1.358021e+00	1.339428e+00	1.382985e+00	1.371451e+00	1.298921e+00	1.305903e+00	1.325890e+00	1.334577e+00	1.147746e+00	8.758825e-01	9.639161e-01	1.062392e+00	1.150321e+00	1.291322e+00	1.305994e+00	1.292787e+00	1.304516e+00	1.305628e+00	9.667839e-01	9.599524e-01	8.983493e-01	9.442573e-01	9.844399e-01	1.499399e+00	1.463673e+00	1.507632e+00	1.146304e+00	1.201309e+00	1.220792e+00	7.147997e-01	7.207911e-01	6.992327e-01	1.290926e+00	1.264243e+00	1.291737e+00	1.410341e+00	1.432928e+00	1.121036e+00	9.449932e-01	8.811464e-01	1.495350e+00	1.600109e+00	1.269078e+00	1.249987e+00	1.202985e+00	1.329303e+00	1.075554e+00	1.131102e+00	1.213650e+00	1.214799e+00	1.198438e+00	6.929936e-01	6.956611e-01	1.395716e+00	1.412109e+00	1.305439e+00	1.358869e+00	1.387173e+00	1.389270e+00	1.389019e+00	6.620229e-01	6.342686e-01	6.414506e-01	9.007241e-01	1.293813e+00	1.284844e+00	1.260475e+00	1.265364e+00	1.249706e+00	1.258380e+00	1.255543e+00	1.186944e+00	1.234065e+00	1.271571e+00	1.097302e+00	1.044682e+00	1.457789e+00	1.491157e+00	1.372403e+00	1.410179e+00	1.428498e+00	1.344128e+00	1.366643