# vtk DataFile Version 3.0
vtk output
ASCII
DATASET UNSTRUCTURED_GRID
POINTS 198 double
0.000000e+00	0.000000e+00	0.0	3.012765e-03	3.990394e-03	0.0	6.138470e-03	8.130377e-03	0.0	1.056156e-02	1.116892e-02	0.0	1.521912e-02	1.423252e-02	0.0	2.057087e-02	1.641468e-02	0.0	2.612970e-02	1.863259e-02	0.0	3.204303e-02	2.049100e-02	0.0	3.818023e-02	2.235342e-02	0.0	4.460631e-02	2.400852e-02	0.0	5.129101e-02	2.553244e-02	0.0	5.827397e-02	2.676141e-02	0.0	6.554496e-02	2.754933e-02	0.0	7.308821e-02	2.805646e-02	0.0	8.088617e-02	2.790302e-02	0.0	8.892819e-02	2.783504e-02	0.0	9.721677e-02	2.797148e-02	0.0	1.056865e-01	2.889362e-02	0.0	1.143697e-01	3.024961e-02	0.0	1.230602e-01	3.266194e-02	0.0	1.319066e-01	3.550932e-02	0.0	1.408999e-01	3.869836e-02	0.0	1.500162e-01	4.229667e-02	0.0	1.593682e-01	4.598800e-02	0.0	1.690242e-01	4.959078e-02	0.0	1.789242e-01	5.325757e-02	0.0	1.891218e-01	5.681038e-02	0.0	1.997765e-01	5.974516e-02	0.0	2.106648e-01	6.274426e-02	0.0	2.219478e-01	6.504127e-02	0.0	2.335697e-01	6.687191e-02	0.0	2.454215e-01	6.869362e-02	0.0	2.576034e-01	6.958322e-02	0.0	2.699991e-01	7.048845e-02	0.0	2.826172e-01	7.106717e-02	0.0	2.954485e-01	7.133781e-02	0.0	3.084692e-01	7.160787e-02	0.0	3.216722e-01	7.152059e-02	0.0	3.350445e-01	7.143220e-02	0.0	3.485717e-01	7.116071e-02	0.0	3.622423e-01	7.071416e-02	0.0	3.760469e-01	7.025193e-02	0.0	3.899532e-01	6.936697e-02	0.0	4.039681e-01	6.847509e-02	0.0	4.180566e-01	6.731169e-02	0.0	4.322078e-01	6.591662e-02	0.0	4.464243e-01	6.450297e-02	0.0	4.606716e-01	6.288277e-02	0.0	4.749561e-01	6.125833e-02	0.0	4.892850e-01	5.984970e-02	0.0	5.036379e-01	5.860505e-02	0.0	5.179880e-01	5.745184e-02	0.0	5.323627e-01	5.721322e-02	0.0	5.466998e-01	5.697523e-02	0.0	5.609622e-01	5.752682e-02	0.0	5.751441e-01	5.856471e-02	0.0	5.892387e-01	5.966443e-02	0.0	6.031972e-01	6.120552e-02	0.0	6.170475e-01	6.273467e-02	0.0	6.308014e-01	6.398901e-02	0.0	6.444360e-01	6.507657e-02	0.0	6.579290e-01	6.599716e-02	0.0	6.712997e-01	6.576779e-02	0.0	6.845010e-01	6.554133e-02	0.0	6.974652e-01	6.449348e-02	0.0	7.102041e-01	6.293244e-02	0.0	7.227327e-01	6.131397e-02	0.0	7.349186e-01	5.886910e-02	0.0	7.468943e-01	5.646642e-02	0.0	7.585805e-01	5.378677e-02	0.0	7.699935e-01	5.092978e-02	0.0	7.811706e-01	4.809287e-02	0.0	7.920614e-01	4.510278e-02	0.0	8.027186e-01	4.217683e-02	0.0	8.131263e-01	3.927107e-02	0.0	8.232918e-01	3.642170e-02	0.0	8.332368e-01	3.371750e-02	0.0	8.429575e-01	3.114963e-02	0.0	8.524497e-01	2.871356e-02	0.0	8.617560e-01	2.658344e-02	0.0	8.708151e-01	2.450991e-02	0.0	8.796718e-01	2.270005e-02	0.0	8.882917e-01	2.098721e-02	0.0	8.966747e-01	1.936876e-02	0.0	9.048312e-01	1.788858e-02	0.0	9.127457e-01	1.645233e-02	0.0	9.204248e-01	1.508221e-02	0.0	9.278685e-01	1.375929e-02	0.0	9.350769e-01	1.246656e-02	0.0	9.420522e-01	1.119474e-02	0.0	9.488018e-01	9.963706e-03	0.0	9.553245e-01	8.743474e-03	0.0	9.616300e-01	7.563861e-03	0.0	9.677188e-01	6.402975e-03	0.0	9.735988e-01	5.278002e-03	0.0	9.792718e-01	4.173299e-03	0.0	9.847448e-01	3.099890e-03	0.0	9.900214e-01	2.051003e-03	0.0	9.951056e-01	1.021521e-03	0.0	1.000000e+00	0.000000e+00	0.0	9.950063e-01	2.422552e-04	0.0	9.898235e-01	4.311480e-04	0.0	9.844480e-01	5.689384e-04	0.0	9.788755e-01	6.636547e-04	0.0	9.731018e-01	7.348567e-04	0.0	9.671222e-01	7.501826e-04	0.0	9.609325e-01	7.435344e-04	0.0	9.545284e-01	6.724418e-04	0.0	9.479056e-01	5.862616e-04	0.0	9.410613e-01	4.047198e-04	0.0	9.339898e-01	2.171534e-04	0.0	9.266909e-01	-7.319801e-05	0.0	9.191584e-01	-3.971893e-04	0.0	9.113903e-01	-7.702949e-04	0.0	9.033853e-01	-1.226958e-03	0.0	8.951372e-01	-1.697486e-03	0.0	8.866485e-01	-2.256411e-03	0.0	8.779136e-01	-2.844298e-03	0.0	8.689321e-01	-3.476714e-03	0.0	8.597042e-01	-4.170637e-03	0.0	8.502266e-01	-4.885055e-03	0.0	8.405054e-01	-5.700231e-03	0.0	8.305349e-01	-6.536318e-03	0.0	8.203266e-01	-7.508088e-03	0.0	8.098753e-01	-8.540771e-03	0.0	7.991917e-01	-9.706712e-03	0.0	7.882783e-01	-1.100265e-02	0.0	7.771343e-01	-1.237860e-02	0.0	7.657818e-01	-1.397281e-02	0.0	7.542016e-01	-1.559900e-02	0.0	7.424237e-01	-1.742128e-02	0.0	7.304363e-01	-1.931896e-02	0.0	7.182475e-01	-2.129448e-02	0.0	7.058768e-01	-2.341911e-02	0.0	6.933134e-01	-2.557684e-02	0.0	6.805823e-01	-2.785799e-02	0.0	6.676837e-01	-3.020816e-02	0.0	6.546239e-01	-3.260363e-02	0.0	6.414301e-01	-3.513139e-02	0.0	6.280944e-01	-3.768635e-02	0.0	6.146434e-01	-4.034151e-02	0.0	6.010863e-01	-4.307940e-02	0.0	5.874242e-01	-4.583848e-02	0.0	5.737020e-01	-4.876881e-02	0.0	5.599016e-01	-5.171603e-02	0.0	5.460458e-01	-5.471848e-02	0.0	5.321510e-01	-5.778411e-02	0.0	5.182201e-01	-6.085771e-02	0.0	5.041950e-01	-6.358363e-02	0.0	4.901537e-01	-6.626745e-02	0.0	4.760619e-01	-6.857126e-02	0.0	4.618877e-01	-7.018560e-02	0.0	4.477501e-01	-7.179576e-02	0.0	4.335871e-01	-7.191218e-02	0.0	4.194763e-01	-7.176457e-02	0.0	4.054853e-01	-7.103870e-02	0.0	3.916600e-01	-6.927070e-02	0.0	3.779409e-01	-6.751628e-02	0.0	3.644275e-01	-6.521253e-02	0.0	3.510618e-01	-6.281967e-02	0.0	3.378254e-01	-6.052913e-02	0.0	3.247102e-01	-5.845739e-02	0.0	3.117598e-01	-5.641168e-02	0.0	2.989021e-01	-5.507279e-02	0.0	2.861998e-01	-5.400140e-02	0.0	2.736858e-01	-5.305389e-02	0.0	2.613467e-01	-5.258451e-02	0.0	2.492189e-01	-5.212318e-02	0.0	2.373096e-01	-5.165735e-02	0.0	2.256250e-01	-5.119312e-02	0.0	2.141732e-01	-5.069111e-02	0.0	2.029914e-01	-4.966195e-02	0.0	1.920476e-01	-4.865470e-02	0.0	1.813836e-01	-4.735472e-02	0.0	1.710000e-01	-4.578082e-02	0.0	1.608611e-01	-4.424402e-02	0.0	1.510152e-01	-4.246672e-02	0.0	1.414197e-01	-4.070846e-02	0.0	1.320694e-01	-3.900288e-02	0.0	1.229629e-01	-3.735792e-02	0.0	1.141025e-01	-3.575741e-02	0.0	1.054601e-01	-3.436239e-02	0.0	9.705350e-02	-3.305853e-02	0.0	8.888642e-02	-3.181403e-02	0.0	8.095055e-02	-3.066920e-02	0.0	7.325298e-02	-2.955875e-02	0.0	6.580585e-02	-2.838322e-02	0.0	5.859283e-02	-2.722824e-02	0.0	5.165050e-02	-2.588231e-02	0.0	4.495632e-02	-2.444522e-02	0.0	3.856322e-02	-2.273453e-02	0.0	3.243444e-02	-2.087569e-02	0.0	2.668528e-02	-1.859767e-02	0.0	2.121065e-02	-1.620235e-02	0.0	1.619322e-02	-1.334471e-02	0.0	1.150536e-02	-1.034520e-02	0.0	7.144343e-03	-7.199181e-03	0.0	3.255277e-03	-3.770429e-03	0.0	
CELLS 198	594
2	16	17	2	17	18	2	18	19	2	19	20	2	20	21	2	21	22	2	22	23	2	23	24	2	24	25	2	25	26	2	26	27	2	27	28	2	28	29	2	29	30	2	30	31	2	31	32	2	32	33	2	33	34	2	34	35	2	35	36	2	36	37	2	37	38	2	38	39	2	39	40	2	40	41	2	41	42	2	42	43	2	43	44	2	44	45	2	45	46	2	46	47	2	47	48	2	48	49	2	49	50	2	50	51	2	51	52	2	52	53	2	53	54	2	54	55	2	55	56	2	56	57	2	57	58	2	58	59	2	59	60	2	60	61	2	61	62	2	62	63	2	63	64	2	64	65	2	65	66	2	66	67	2	67	68	2	68	69	2	69	70	2	70	71	2	71	72	2	72	73	2	73	74	2	74	75	2	75	76	2	76	77	2	77	78	2	78	79	2	79	80	2	80	81	2	81	82	2	82	83	2	83	84	2	84	85	2	85	86	2	86	87	2	87	88	2	88	89	2	89	90	2	90	91	2	91	92	2	92	93	2	93	94	2	94	95	2	95	96	2	96	97	2	97	98	2	98	99	2	99	100	2	100	101	2	101	102	2	102	103	2	103	104	2	104	105	2	105	106	2	106	107	2	107	108	2	108	109	2	109	110	2	110	111	2	111	112	2	112	113	2	113	114	2	114	115	2	115	116	2	116	117	2	117	118	2	118	119	2	119	120	2	120	121	2	121	122	2	122	123	2	123	124	2	124	125	2	125	126	2	126	127	2	127	128	2	128	129	2	129	130	2	130	131	2	131	132	2	132	133	2	133	134	2	134	135	2	135	136	2	136	137	2	137	138	2	138	139	2	139	140	2	140	141	2	141	142	2	142	143	2	143	144	2	144	145	2	145	146	2	146	147	2	147	148	2	148	149	2	0	1	2	1	2	2	2	3	2	3	4	2	4	5	2	5	6	2	6	7	2	7	8	2	8	9	2	9	10	2	10	11	2	11	12	2	12	13	2	13	14	2	14	15	2	15	16	2	149	150	2	150	151	2	151	152	2	152	153	2	153	154	2	154	155	2	155	156	2	156	157	2	157	158	2	158	159	2	159	160	2	160	161	2	161	162	2	162	163	2	163	164	2	164	165	2	165	166	2	166	167	2	167	168	2	168	169	2	169	170	2	170	171	2	171	172	2	172	173	2	173	174	2	174	175	2	175	176	2	176	177	2	177	178	2	178	179	2	179	180	2	180	181	2	181	182	2	182	183	2	183	184	2	184	185	2	185	186	2	186	187	2	187	188	2	188	189	2	189	190	2	190	191	2	191	192	2	192	193	2	193	194	2	194	195	2	195	196	2	196	197	2	197	0	
CELL_TYPES 198
3	3	3	3	3	3	3	3	3	3	3	3	3	3	3	3	3	3	3	3	3	3	3	3	3	3	3	3	3	3	3	3	3	3	3	3	3	3	3	3	3	3	3	3	3	3	3	3	3	3	3	3	3	3	3	3	3	3	3	3	3	3	3	3	3	3	3	3	3	3	3	3	3	3	3	3	3	3	3	3	3	3	3	3	3	3	3	3	3	3	3	3	3	3	3	3	3	3	3	3	3	3	3	3	3	3	3	3	3	3	3	3	3	3	3	3	3	3	3	3	3	3	3	3	3	3	3	3	3	3	3	3	3	3	3	3	3	3	3	3	3	3	3	3	3	3	3	3	3	3	3	3	3	3	3	3	3	3	3	3	3	3	3	3	3	3	3	3	3	3	3	3	3	3	3	3	3	3	3	3	3	3	3	3	3	3	3	3	3	3	3	3	3	3	3	3	3	3	
POINT_DATA 198

SCALARS Density double 1
LOOKUP_TABLE default
1.580331e+00	1.241246e+00	1.157797e+00	1.043965e+00	9.610343e-01	9.082917e-01	9.124729e-01	9.204369e-01	9.383617e-01	9.202119e-01	9.067312e-01	9.137200e-01	9.948450e-01	1.130713e+00	1.239995e+00	1.317647e+00	1.365671e+00	1.385581e+00	1.391135e+00	1.382882e+00	1.349590e+00	1.324435e+00	1.285418e+00	1.231696e+00	1.188219e+00	1.138412e+00	1.061027e+00	1.001882e+00	9.464026e-01	8.700689e-01	8.424919e-01	7.913572e-01	7.436044e-01	7.318511e-01	7.063915e-01	6.951252e-01	6.853500e-01	6.764876e-01	6.750419e-01	6.661891e-01	6.626436e-01	6.481644e-01	6.335404e-01	6.251987e-01	6.086678e-01	6.034188e-01	5.953588e-01	5.891530e-01	6.040038e-01	7.191909e-01	1.014691e+00	1.207880e+00	1.228540e+00	1.223832e+00	1.226867e+00	1.203427e+00	1.182504e+00	1.155553e+00	1.106162e+00	1.061192e+00	1.018809e+00	9.338068e-01	8.740226e-01	8.335280e-01	7.682064e-01	7.392767e-01	7.375133e-01	8.250836e-01	1.006440e+00	1.076836e+00	1.104624e+00	1.123078e+00	1.145988e+00	1.169913e+00	1.186898e+00	1.205143e+00	1.219896e+00	1.230669e+00	1.242730e+00	1.248060e+00	1.251675e+00	1.256350e+00	1.255558e+00	1.258527e+00	1.259740e+00	1.259704e+00	1.261762e+00	1.262843e+00	1.264722e+00	1.267701e+00	1.270650e+00	1.274184e+00	1.278112e+00	1.281972e+00	1.286974e+00	1.291869e+00	1.298205e+00	1.307537e+00	1.311203e+00	1.313905e+00	1.430408e+00	1.386017e+00	1.386671e+00	1.390678e+00	1.389390e+00	1.390190e+00	1.390242e+00	1.391364e+00	1.391121e+00	1.391097e+00	1.391358e+00	1.389098e+00	1.389395e+00	1.387376e+00	1.386385e+00	1.385445e+00	1.383120e+00	1.382941e+00	1.381258e+00	1.381609e+00	1.381048e+00	1.381651e+00	1.381821e+00	1.381592e+00	1.381837e+00	1.379423e+00	1.379340e+00	1.375728e+00	1.372091e+00	1.369334e+00	1.362604e+00	1.359426e+00	1.353555e+00	1.347737e+00	1.343053e+00	1.335444e+00	1.330726e+00	1.323619e+00	1.316594e+00	1.309938e+00	1.299867e+00	1.293329e+00	1.282925e+00	1.268404e+00	1.255214e+00	1.236476e+00	1.213282e+00	1.194583e+00	1.071702e+00	8.489276e-01	7.603430e-01	7.612114e-01	8.208746e-01	9.065591e-01	9.450237e-01	1.028363e+00	1.101466e+00	1.151103e+00	1.216448e+00	1.260339e+00	1.288629e+00	1.323402e+00	1.343453e+00	1.338292e+00	1.344566e+00	1.337331e+00	1.318186e+00	1.306754e+00	1.291120e+00	1.262207e+00	1.253311e+00	1.255194e+00	1.250393e+00	1.268042e+00	1.280371e+00	1.295344e+00	1.320149e+00	1.336999e+00	1.350715e+00	1.366678e+00	1.377517e+00	1.379939e+00	1.384486e+00	1.385654e+00	1.381610e+00	1.381532e+00	1.377274e+00	1.375581e+00	1.376649e+00	1.384233e+00	1.395071e+00	1.418460e+00	1.448820e+00	1.484519e+00	1.535517e+00	1.576380e+00	1.607976e+00	1.693817e+00	
VECTORS Momentum double
9.160591e-01	1.894058e+02	0.0	1.568634e+02	2.024571e+02	0.0	2.076050e+02	1.981802e+02	0.0	2.529699e+02	1.728547e+02	0.0	2.740690e+02	1.444284e+02	0.0	2.846054e+02	1.155709e+02	0.0	2.919940e+02	1.035544e+02	0.0	2.956124e+02	9.086130e+01	0.0	3.024134e+02	8.463182e+01	0.0	3.047367e+02	7.395288e+01	0.0	3.096951e+02	6.225446e+01	0.0	3.098898e+02	4.420744e+01	0.0	3.095657e+02	2.743805e+01	0.0	2.989687e+02	7.745665e+00	0.0	2.790374e+02	-3.940677e+00	0.0	2.592536e+02	7.367773e-01	0.0	2.455214e+02	1.533539e+01	0.0	2.364729e+02	3.142076e+01	0.0	2.323167e+02	5.037703e+01	0.0	2.355033e+02	7.101559e+01	0.0	2.433573e+02	8.249677e+01	0.0	2.522734e+02	9.441896e+01	0.0	2.642628e+02	1.044498e+02	0.0	2.754630e+02	1.056406e+02	0.0	2.855521e+02	1.061659e+02	0.0	2.953262e+02	1.067152e+02	0.0	3.033196e+02	9.525685e+01	0.0	3.074480e+02	8.476246e+01	0.0	3.115541e+02	7.490271e+01	0.0	3.067615e+02	5.520701e+01	0.0	3.074628e+02	4.780278e+01	0.0	3.029238e+02	3.467796e+01	0.0	2.950272e+02	2.114582e+01	0.0	2.951405e+02	1.722243e+01	0.0	2.900368e+02	9.746904e+00	0.0	2.881081e+02	5.816959e+00	0.0	2.864310e+02	1.961392e+00	0.0	2.843843e+02	-2.013341e+00	0.0	2.845518e+02	-3.808061e+00	0.0	2.823526e+02	-7.256747e+00	0.0	2.818712e+02	-9.121985e+00	0.0	2.781054e+02	-1.321552e+01	0.0	2.743046e+02	-1.731045e+01	0.0	2.724886e+02	-1.990337e+01	0.0	2.673032e+02	-2.417363e+01	0.0	2.664648e+02	-2.647370e+01	0.0	2.637870e+02	-2.816854e+01	0.0	2.639766e+02	-2.971303e+01	0.0	2.608517e+02	-2.715427e+01	0.0	2.727030e+02	-2.672187e+01	0.0	2.674639e+02	-2.047820e+01	0.0	2.561333e+02	-1.230805e+01	0.0	2.558418e+02	-3.977860e+00	0.0	2.567315e+02	2.808254e+00	0.0	2.614730e+02	1.480770e+01	0.0	2.661853e+02	2.014525e+01	0.0	2.711669e+02	2.550914e+01	0.0	2.792677e+02	3.080308e+01	0.0	2.866342e+02	2.878639e+01	0.0	2.918907e+02	2.485440e+01	0.0	2.985115e+02	2.228569e+01	0.0	2.987761e+02	7.687150e+00	0.0	2.956922e+02	-5.666783e+00	0.0	2.942917e+02	-1.416490e+01	0.0	2.845237e+02	-2.883390e+01	0.0	2.802556e+02	-3.560515e+01	0.0	2.751434e+02	-4.462434e+01	0.0	2.733927e+02	-5.579420e+01	0.0	2.707285e+02	-5.667032e+01	0.0	2.636593e+02	-6.272539e+01	0.0	2.585132e+02	-6.512582e+01	0.0	2.535467e+02	-6.692730e+01	0.0	2.471513e+02	-6.775919e+01	0.0	2.415891e+02	-6.676964e+01	0.0	2.352887e+02	-6.580246e+01	0.0	2.300356e+02	-6.352987e+01	0.0	2.258781e+02	-6.054102e+01	0.0	2.213010e+02	-5.765034e+01	0.0	2.186973e+02	-5.307981e+01	0.0	2.170135e+02	-4.961296e+01	0.0	2.152350e+02	-4.667828e+01	0.0	2.153085e+02	-4.339618e+01	0.0	2.145937e+02	-4.212760e+01	0.0	2.140767e+02	-4.015134e+01	0.0	2.141326e+02	-3.883748e+01	0.0	2.135656e+02	-3.844995e+01	0.0	2.130098e+02	-3.791834e+01	0.0	2.121892e+02	-3.787036e+01	0.0	2.109710e+02	-3.815791e+01	0.0	2.095944e+02	-3.823746e+01	0.0	2.079622e+02	-3.841034e+01	0.0	2.059316e+02	-3.851950e+01	0.0	2.037058e+02	-3.846672e+01	0.0	2.011841e+02	-3.844187e+01	0.0	1.986568e+02	-3.832392e+01	0.0	1.954808e+02	-3.822324e+01	0.0	1.918036e+02	-3.783253e+01	0.0	1.866779e+02	-3.732480e+01	0.0	1.768165e+02	-3.694763e+01	0.0	1.830572e+02	-1.018114e+01	0.0	2.700631e+02	-1.503882e+01	0.0	2.512792e+02	-7.581196e+00	0.0	2.491712e+02	-4.995609e+00	0.0	2.515385e+02	-3.848289e+00	0.0	2.504637e+02	-1.827673e+00	0.0	2.502067e+02	-1.731631e-01	0.0	2.500363e+02	1.546836e+00	0.0	2.498565e+02	2.998176e+00	0.0	2.496476e+02	4.957136e+00	0.0	2.497723e+02	6.601848e+00	0.0	2.498455e+02	8.300222e+00	0.0	2.501131e+02	1.038800e+01	0.0	2.506294e+02	1.141094e+01	0.0	2.509303e+02	1.322039e+01	0.0	2.516184e+02	1.435229e+01	0.0	2.519834e+02	1.551190e+01	0.0	2.524276e+02	1.684303e+01	0.0	2.529891e+02	1.741061e+01	0.0	2.531012e+02	1.846628e+01	0.0	2.532734e+02	1.906528e+01	0.0	2.531258e+02	2.016748e+01	0.0	2.530948e+02	2.120528e+01	0.0	2.527116e+02	2.264615e+01	0.0	2.526389e+02	2.449461e+01	0.0	2.525380e+02	2.624975e+01	0.0	2.526640e+02	2.882811e+01	0.0	2.531731e+02	3.062362e+01	0.0	2.534647e+02	3.346420e+01	0.0	2.547836e+02	3.578297e+01	0.0	2.561430e+02	3.776695e+01	0.0	2.575979e+02	4.032626e+01	0.0	2.597509e+02	4.157780e+01	0.0	2.611630e+02	4.359660e+01	0.0	2.630907e+02	4.518332e+01	0.0	2.650553e+02	4.647143e+01	0.0	2.666251e+02	4.817800e+01	0.0	2.686818e+02	4.908217e+01	0.0	2.700222e+02	5.065769e+01	0.0	2.721647e+02	5.213484e+01	0.0	2.739751e+02	5.330836e+01	0.0	2.753272e+02	5.506289e+01	0.0	2.777576e+02	5.605821e+01	0.0	2.792782e+02	5.808422e+01	0.0	2.813778e+02	6.014669e+01	0.0	2.843710e+02	6.118396e+01	0.0	2.872036e+02	6.286340e+01	0.0	2.905821e+02	6.446826e+01	0.0	2.948906e+02	6.092681e+01	0.0	2.965453e+02	5.588547e+01	0.0	2.977004e+02	5.323980e+01	0.0	2.981189e+02	4.048682e+01	0.0	3.036429e+02	3.427671e+01	0.0	3.158469e+02	1.824657e+01	0.0	3.286791e+02	-1.370098e+00	0.0	3.286587e+02	-1.059548e+01	0.0	3.344807e+02	-3.058203e+01	0.0	3.315655e+02	-4.271078e+01	0.0	3.258523e+02	-4.858631e+01	0.0	3.205454e+02	-5.651925e+01	0.0	3.123132e+02	-5.507677e+01	0.0	3.064046e+02	-5.074862e+01	0.0	3.009945e+02	-4.795163e+01	0.0	2.965622e+02	-3.897018e+01	0.0	2.959438e+02	-2.768064e+01	0.0	2.980382e+02	-2.399798e+01	0.0	2.985472e+02	-1.698577e+01	0.0	3.023804e+02	-1.139496e+01	0.0	3.073191e+02	-1.197330e+01	0.0	3.103399e+02	-1.202626e+01	0.0	3.135975e+02	-1.277709e+01	0.0	3.174190e+02	-2.156505e+01	0.0	3.169962e+02	-2.923947e+01	0.0	3.154289e+02	-3.367142e+01	0.0	3.138108e+02	-4.304062e+01	0.0	3.085112e+02	-4.667369e+01	0.0	3.044615e+02	-5.050253e+01	0.0	2.997026e+02	-5.464690e+01	0.0	2.938587e+02	-5.366795e+01	0.0	2.898108e+02	-5.262442e+01	0.0	2.860478e+02	-5.173141e+01	0.0	2.824498e+02	-4.828451e+01	0.0	2.806629e+02	-4.432893e+01	0.0	2.801247e+02	-4.311169e+01	0.0	2.794232e+02	-4.143151e+01	0.0	2.797557e+02	-4.030451e+01	0.0	2.804046e+02	-4.237521e+01	0.0	2.800694e+02	-4.448492e+01	0.0	2.796837e+02	-4.942381e+01	0.0	2.772762e+02	-5.662386e+01	0.0	2.729604e+02	-6.566128e+01	0.0	2.650791e+02	-7.568764e+01	0.0	2.522431e+02	-8.793995e+01	0.0	2.335390e+02	-9.719331e+01	0.0	2.074304e+02	-1.034854e+02	0.0	1.711860e+02	-1.032681e+02	0.0	1.306351e+02	-8.905445e+01	0.0	8.247407e+01	-6.456503e+01	0.0	1.263887e+00	-4.051634e+00	0.0	
SCALARS Energy double 1
LOOKUP_TABLE default
3.459552e+05	2.767272e+05	2.612449e+05	2.392408e+05	2.226772e+05	2.118136e+05	2.129071e+05	2.144511e+05	2.185075e+05	2.148237e+05	2.123562e+05	2.134700e+05	2.296122e+05	2.565079e+05	2.778785e+05	2.930334e+05	3.024910e+05	3.063458e+05	3.074859e+05	3.061436e+05	2.996626e+05	2.950444e+05	2.877307e+05	2.772019e+05	2.688368e+05	2.592509e+05	2.437044e+05	2.317717e+05	2.207365e+05	2.046352e+05	1.991206e+05	1.883968e+05	1.780665e+05	1.757713e+05	1.702202e+05	1.678113e+05	1.657278e+05	1.637833e+05	1.635287e+05	1.615775e+05	1.608481e+05	1.576466e+05	1.544243e+05	1.526378e+05	1.489033e+05	1.478337e+05	1.459972e+05	1.448752e+05	1.472527e+05	1.708782e+05	2.301775e+05	2.697191e+05	2.740354e+05	2.730960e+05	2.740460e+05	2.694355e+05	2.654008e+05	2.603534e+05	2.506010e+05	2.416839e+05	2.335044e+05	2.161717e+05	2.038375e+05	1.956376e+05	1.818029e+05	1.757428e+05	1.749875e+05	1.924087e+05	2.291169e+05	2.432679e+05	2.487411e+05	2.522989e+05	2.567070e+05	2.613797e+05	2.645764e+05	2.680997e+05	2.709520e+05	2.729549e+05	2.753215e+05	2.763278e+05	2.769756e+05	2.779387e+05	2.777230e+05	2.783104e+05	2.785594e+05	2.785208e+05	2.789270e+05	2.791170e+05	2.794607e+05	2.800300e+05	2.805825e+05	2.812417e+05	2.819760e+05	2.826846e+05	2.836380e+05	2.845432e+05	2.857357e+05	2.875133e+05	2.879037e+05	2.885895e+05	3.175063e+05	3.070869e+05	3.071137e+05	3.080848e+05	3.077549e+05	3.079111e+05	3.079137e+05	3.081433e+05	3.080825e+05	3.080857e+05	3.081475e+05	3.076857e+05	3.077777e+05	3.073692e+05	3.071978e+05	3.070210e+05	3.065554e+05	3.065488e+05	3.062017e+05	3.062874e+05	3.061652e+05	3.062959e+05	3.063183e+05	3.062751e+05	3.063309e+05	3.058403e+05	3.058605e+05	3.051293e+05	3.044450e+05	3.039486e+05	3.026230e+05	3.020783e+05	3.009324e+05	2.998247e+05	2.989583e+05	2.974586e+05	2.965909e+05	2.951877e+05	2.938501e+05	2.925704e+05	2.905547e+05	2.893413e+05	2.872772e+05	2.843919e+05	2.818365e+05	2.781300e+05	2.735449e+05	2.699018e+05	2.445489e+05	1.994901e+05	1.818950e+05	1.826006e+05	1.954348e+05	2.136211e+05	2.212844e+05	2.386835e+05	2.533599e+05	2.630997e+05	2.762419e+05	2.847181e+05	2.901468e+05	2.970221e+05	3.008562e+05	2.996543e+05	3.010827e+05	2.995669e+05	2.957862e+05	2.937246e+05	2.906659e+05	2.848725e+05	2.833316e+05	2.837365e+05	2.826583e+05	2.862919e+05	2.885251e+05	2.914139e+05	2.963318e+05	2.994775e+05	3.020934e+05	3.052117e+05	3.072449e+05	3.076130e+05	3.085297e+05	3.087208e+05	3.078776e+05	3.079164e+05	3.070182e+05	3.066872e+05	3.068523e+05	3.083204e+05	3.103184e+05	3.147955e+05	3.205017e+05	3.271053e+05	3.367123e+05	3.441206e+05	3.496819e+05	3.673244e+05	
SCALARS Pressure double 1
LOOKUP_TABLE default
1.338418e+05	1.001216e+05	9.026832e+04	7.771245e+04	6.909795e+04	6.394865e+04	6.412460e+04	6.499847e+04	6.638415e+04	6.455756e+04	6.293227e+04	6.394030e+04	7.242805e+04	8.678266e+04	9.859048e+04	1.070114e+05	1.121339e+05	1.143242e+05	1.148702e+05	1.137069e+05	1.100801e+05	1.070611e+05	1.025291e+05	9.674744e+04	9.191282e+04	8.637700e+04	7.842915e+04	7.240510e+04	6.659637e+04	5.952240e+04	5.666441e+04	5.186353e+04	4.769576e+04	4.642264e+04	4.424400e+04	4.323240e+04	4.234815e+04	4.160201e+04	4.141765e+04	4.068113e+04	4.033402e+04	3.913961e+04	3.792194e+04	3.717592e+04	3.589148e+04	3.536745e+04	3.475697e+04	3.399483e+04	3.612608e+04	4.747199e+04	7.788809e+04	9.699986e+04	9.895586e+04	9.846587e+04	9.843751e+04	9.593129e+04	9.361366e+04	9.047876e+04	8.523577e+04	8.049969e+04	7.581147e+04	6.733705e+04	6.152043e+04	5.742593e+04	5.142867e+04	4.870552e+04	4.892550e+04	5.809108e+04	7.644357e+04	8.366520e+04	8.662864e+04	8.867373e+04	9.122106e+04	9.381203e+04	9.577228e+04	9.778830e+04	9.941510e+04	1.006829e+05	1.019778e+05	1.025898e+05	1.030398e+05	1.034959e+05	1.034711e+05	1.037851e+05	1.039045e+05	1.039322e+05	1.041509e+05	1.042890e+05	1.045155e+05	1.048507e+05	1.051935e+05	1.056073e+05	1.060655e+05	1.065288e+05	1.070941e+05	1.076752e+05	1.084062e+05	1.094618e+05	1.101845e+05	1.103192e+05	1.167732e+05	1.137153e+05	1.138871e+05	1.141324e+05	1.140713e+05	1.141580e+05	1.141713e+05	1.142823e+05	1.142692e+05	1.142587e+05	1.142762e+05	1.140520e+05	1.140502e+05	1.138455e+05	1.137160e+05	1.136076e+05	1.133672e+05	1.133195e+05	1.131557e+05	1.131764e+05	1.131284e+05	1.131807e+05	1.132098e+05	1.131836e+05	1.132021e+05	1.129597e+05	1.129144e+05	1.125492e+05	1.121292e+05	1.117885e+05	1.110708e+05	1.106507e+05	1.100140e+05	1.093554e+05	1.087998e+05	1.079893e+05	1.074246e+05	1.066702e+05	1.058748e+05	1.051338e+05	1.040919e+05	1.033202e+05	1.022258e+05	1.007024e+05	9.925318e+04	9.727072e+04	9.481392e+04	9.278012e+04	8.082558e+04	5.824885e+04	4.894924e+04	4.850727e+04	5.378718e+04	6.161507e+04	6.562992e+04	7.353318e+04	8.105103e+04	8.638141e+04	9.307823e+04	9.792757e+04	1.010879e+05	1.047697e+05	1.070234e+05	1.066585e+05	1.071347e+05	1.064540e+05	1.044221e+05	1.030130e+05	1.013250e+05	9.834036e+04	9.718023e+04	9.734704e+04	9.696770e+04	9.869242e+04	1.002023e+05	1.018595e+05	1.044725e+05	1.064427e+05	1.079909e+05	1.097190e+05	1.109766e+05	1.113437e+05	1.118078e+05	1.119712e+05	1.115866e+05	1.115240e+05	1.111294e+05	1.109466e+05	1.111057e+05	1.119401e+05	1.132325e+05	1.158566e+05	1.193677e+05	1.236025e+05	1.294790e+05	1.344769e+05	1.385082e+05	1.469276e+05	
SCALARS Temperature double 1
LOOKUP_TABLE default
2.950354e+02	2.809963e+02	2.716023e+02	2.593195e+02	2.504705e+02	2.452655e+02	2.448133e+02	2.460025e+02	2.464475e+02	2.443935e+02	2.417827e+02	2.437765e+02	2.536189e+02	2.673689e+02	2.769782e+02	2.829184e+02	2.860365e+02	2.874328e+02	2.876527e+02	2.864388e+02	2.841432e+02	2.815993e+02	2.778646e+02	2.736317e+02	2.694697e+02	2.643194e+02	2.575024e+02	2.517578e+02	2.451348e+02	2.383182e+02	2.343015e+02	2.283073e+02	2.234437e+02	2.209721e+02	2.181922e+02	2.166590e+02	2.152546e+02	2.142322e+02	2.137396e+02	2.127286e+02	2.120420e+02	2.103593e+02	2.085195e+02	2.071448e+02	2.054194e+02	2.041810e+02	2.033731e+02	2.010088e+02	2.083586e+02	2.299448e+02	2.674039e+02	2.797548e+02	2.805967e+02	2.802814e+02	2.795074e+02	2.776969e+02	2.757828e+02	2.727640e+02	2.684314e+02	2.642595e+02	2.592224e+02	2.512045e+02	2.452037e+02	2.400039e+02	2.332157e+02	2.295099e+02	2.310978e+02	2.452686e+02	2.645962e+02	2.706611e+02	2.731979e+02	2.750523e+02	2.772972e+02	2.793415e+02	2.810973e+02	2.826693e+02	2.838963e+02	2.849999e+02	2.858640e+02	2.863513e+02	2.867766e+02	2.869743e+02	2.870863e+02	2.872782e+02	2.873319e+02	2.874165e+02	2.875515e+02	2.876865e+02	2.878831e+02	2.881277e+02	2.883988e+02	2.887302e+02	2.890918e+02	2.894803e+02	2.898852e+02	2.903538e+02	2.908983e+02	2.916346e+02	2.927392e+02	2.924943e+02	2.843896e+02	2.858121e+02	2.861090e+02	2.858991e+02	2.860110e+02	2.860635e+02	2.860861e+02	2.861335e+02	2.861507e+02	2.861292e+02	2.861193e+02	2.860225e+02	2.859570e+02	2.858592e+02	2.857382e+02	2.856592e+02	2.855341e+02	2.854509e+02	2.853855e+02	2.853654e+02	2.853599e+02	2.853675e+02	2.854057e+02	2.853870e+02	2.853830e+02	2.852704e+02	2.851731e+02	2.849969e+02	2.846860e+02	2.843924e+02	2.839623e+02	2.835495e+02	2.831409e+02	2.826607e+02	2.822055e+02	2.816992e+02	2.812195e+02	2.807440e+02	2.801375e+02	2.795903e+02	2.789641e+02	2.782959e+02	2.775808e+02	2.765747e+02	2.754590e+02	2.740481e+02	2.722330e+02	2.705632e+02	2.627273e+02	2.390271e+02	2.242677e+02	2.219892e+02	2.282613e+02	2.367670e+02	2.419299e+02	2.490962e+02	2.563409e+02	2.614185e+02	2.665538e+02	2.706749e+02	2.732760e+02	2.757874e+02	2.775150e+02	2.776353e+02	2.775738e+02	2.773023e+02	2.759600e+02	2.746176e+02	2.733886e+02	2.714135e+02	2.701155e+02	2.701733e+02	2.701537e+02	2.711318e+02	2.726292e+02	2.739344e+02	2.756826e+02	2.773416e+02	2.785183e+02	2.796701e+02	2.806499e+02	2.810841e+02	2.813285e+02	2.815022e+02	2.813565e+02	2.812147e+02	2.810861e+02	2.809689e+02	2.811534e+02	2.817130e+02	2.827517e+02	2.845338e+02	2.870138e+02	2.900494e+02	2.937480e+02	2.971783e+02	3.000726e+02	3.021811e+02	
SCALARS Mach double 1
LOOKUP_TABLE default
3.480683e-01	6.140144e-01	7.503267e-01	9.091113e-01	1.016037e+00	1.077195e+00	1.082463e+00	1.068594e+00	1.063392e+00	1.087350e+00	1.117626e+00	1.094521e+00	9.784913e-01	8.068908e-01	6.745503e-01	5.835095e-01	5.312871e-01	5.065620e-01	5.025810e-01	5.242588e-01	5.634385e-01	6.045663e-01	6.615259e-01	7.223097e-01	7.791121e-01	8.463271e-01	9.314498e-01	1.000743e+00	1.078718e+00	1.157554e+00	1.203586e+00	1.271977e+00	1.327394e+00	1.355585e+00	1.387344e+00	1.404895e+00	1.420996e+00	1.432734e+00	1.438395e+00	1.450026e+00	1.457935e+00	1.477353e+00	1.498648e+00	1.514607e+00	1.534698e+00	1.549164e+00	1.558623e+00	1.586408e+00	1.500513e+00	1.253315e+00	8.064325e-01	6.331482e-01	6.202183e-01	6.250825e-01	6.369113e-01	6.640033e-01	6.918550e-01	7.343688e-01	7.929081e-01	8.470926e-01	9.103116e-01	1.007326e+00	1.077915e+00	1.138158e+00	1.215995e+00	1.258272e+00	1.240168e+00	1.077159e+00	8.427870e-01	7.631094e-01	7.283541e-01	7.022920e-01	6.698827e-01	6.394271e-01	6.124389e-01	5.875289e-01	5.675275e-01	5.490713e-01	5.342780e-01	5.257941e-01	5.182994e-01	5.147863e-01	5.127865e-01	5.093473e-01	5.083809e-01	5.068562e-01	5.044168e-01	5.019657e-01	4.983802e-01	4.938911e-01	4.888742e-01	4.826848e-01	4.758568e-01	4.684291e-01	4.605816e-01	4.513573e-01	4.404354e-01	4.252873e-01	4.016465e-01	4.069920e-01	5.593350e-01	5.351757e-01	5.300258e-01	5.336709e-01	5.317310e-01	5.308171e-01	5.304246e-01	5.296000e-01	5.293001e-01	5.296742e-01	5.298461e-01	5.315314e-01	5.326679e-01	5.343626e-01	5.364521e-01	5.378127e-01	5.399628e-01	5.413891e-01	5.425096e-01	5.428526e-01	5.429456e-01	5.428163e-01	5.421634e-01	5.424831e-01	5.425512e-01	5.444743e-01	5.461317e-01	5.491214e-01	5.543680e-01	5.592879e-01	5.664361e-01	5.732338e-01	5.799013e-01	5.876666e-01	5.949579e-01	6.029905e-01	6.105290e-01	6.179361e-01	6.272934e-01	6.356522e-01	6.451241e-01	6.551253e-01	6.657137e-01	6.804232e-01	6.964928e-01	7.164794e-01	7.416886e-01	7.644308e-01	8.665505e-01	1.149404e+00	1.318002e+00	1.343980e+00	1.272501e+00	1.175358e+00	1.115923e+00	1.032285e+00	9.456145e-01	8.830072e-01	8.175284e-01	7.629226e-01	7.272677e-01	6.917884e-01	6.666820e-01	6.649110e-01	6.658175e-01	6.698078e-01	6.893078e-01	7.084544e-01	7.257015e-01	7.529004e-01	7.704609e-01	7.696848e-01	7.699474e-01	7.567319e-01	7.362309e-01	7.180738e-01	6.932918e-01	6.692302e-01	6.518076e-01	6.344378e-01	6.193954e-01	6.126449e-01	6.088221e-01	6.060945e-01	6.083831e-01	6.106042e-01	6.126146e-01	6.144411e-01	6.115626e-01	6.027725e-01	5.862007e-01	5.569223e-01	5.140807e-01	4.573666e-01	3.789399e-01	2.902143e-01	1.875746e-01	7.190278e-03	
SCALARS Pressure_Coefficient double 1
LOOKUP_TABLE default