# vtk DataFile Version 3.0
vtk output
ASCII
DATASET UNSTRUCTURED_GRID
POINTS 1853 double
1.000000e+02	0.000000e+00	0.0	9.917900e+01	1.278772e+01	0.0	9.672949e+01	2.536546e+01	0.0	9.269168e+01	3.752670e+01	0.0	8.713187e+01	4.907176e+01	0.0	8.014136e+01	5.981105e+01	0.0	7.183494e+01	6.956826e+01	0.0	6.234898e+01	7.818315e+01	0.0	5.183926e+01	8.551428e+01	0.0	4.047833e+01	9.144126e+01	0.0	2.845276e+01	9.586679e+01	0.0	1.595999e+01	9.871818e+01	0.0	3.205158e+00	9.994862e+01	0.0	-9.602303e+00	9.953791e+01	0.0	-2.225209e+01	9.749279e+01	0.0	-3.453651e+01	9.384684e+01	0.0	-4.625383e+01	8.865993e+01	0.0	-5.721167e+01	8.201723e+01	0.0	-6.723009e+01	7.402780e+01	0.0	-7.614460e+01	6.482284e+01	0.0	-8.380881e+01	5.455349e+01	0.0	-9.009689e+01	4.338837e+01	0.0	-9.490557e+01	3.151082e+01	0.0	-9.815592e+01	1.911586e+01	0.0	-9.979454e+01	6.407022e+00	0.0	-9.979454e+01	-6.407022e+00	0.0	-9.815592e+01	-1.911586e+01	0.0	-9.490557e+01	-3.151082e+01	0.0	-9.009689e+01	-4.338837e+01	0.0	-8.380881e+01	-5.455349e+01	0.0	-7.614460e+01	-6.482284e+01	0.0	-6.723009e+01	-7.402780e+01	0.0	-5.721167e+01	-8.201723e+01	0.0	-4.625383e+01	-8.865993e+01	0.0	-3.453651e+01	-9.384684e+01	0.0	-2.225209e+01	-9.749279e+01	0.0	-9.602303e+00	-9.953791e+01	0.0	3.205158e+00	-9.994862e+01	0.0	1.595999e+01	-9.871818e+01	0.0	2.845276e+01	-9.586679e+01	0.0	4.047833e+01	-9.144126e+01	0.0	5.183926e+01	-8.551428e+01	0.0	6.234898e+01	-7.818315e+01	0.0	7.183494e+01	-6.956826e+01	0.0	8.014136e+01	-5.981105e+01	0.0	8.713187e+01	-4.907176e+01	0.0	9.269168e+01	-3.752670e+01	0.0	9.672949e+01	-2.536546e+01	0.0	9.917900e+01	-1.278772e+01	0.0	0.000000e+00	0.000000e+00	0.0	3.219923e-03	3.825192e-03	0.0	6.630954e-03	7.717916e-03	0.0	1.099911e-02	1.085865e-02	0.0	1.557026e-02	1.404426e-02	0.0	2.073334e-02	1.664239e-02	0.0	2.610355e-02	1.928360e-02	0.0	3.189909e-02	2.148372e-02	0.0	3.792131e-02	2.368826e-02	0.0	4.429535e-02	2.553683e-02	0.0	5.092248e-02	2.730244e-02	0.0	5.785696e-02	2.878629e-02	0.0	6.506629e-02	3.006045e-02	0.0	7.254707e-02	3.116430e-02	0.0	8.031438e-02	3.188689e-02	0.0	8.833710e-02	3.246220e-02	0.0	9.662390e-02	3.274856e-02	0.0	1.051621e-01	3.286167e-02	0.0	1.139530e-01	3.285052e-02	0.0	1.229951e-01	3.274525e-02	0.0	1.322901e-01	3.259513e-02	0.0	1.418389e-01	3.260075e-02	0.0	1.516417e-01	3.275709e-02	0.0	1.616926e-01	3.301499e-02	0.0	1.719570e-01	3.398617e-02	0.0	1.824712e-01	3.498099e-02	0.0	1.931212e-01	3.673278e-02	0.0	2.039377e-01	3.902149e-02	0.0	2.149915e-01	4.136041e-02	0.0	2.259883e-01	4.484719e-02	0.0	2.372056e-01	4.841260e-02	0.0	2.486062e-01	5.214875e-02	0.0	2.601470e-01	5.616587e-02	0.0	2.718905e-01	6.025358e-02	0.0	2.839262e-01	6.411395e-02	0.0	2.962029e-01	6.787647e-02	0.0	3.086693e-01	7.166231e-02	0.0	3.215944e-01	7.439100e-02	0.0	3.346854e-01	7.715471e-02	0.0	3.480258e-01	7.937842e-02	0.0	3.616148e-01	8.099708e-02	0.0	3.753377e-01	8.263168e-02	0.0	3.892634e-01	8.328471e-02	0.0	4.033001e-01	8.391725e-02	0.0	4.174385e-01	8.414314e-02	0.0	4.316648e-01	8.395059e-02	0.0	4.459574e-01	8.373939e-02	0.0	4.602728e-01	8.278670e-02	0.0	4.746257e-01	8.183152e-02	0.0	4.889595e-01	8.043489e-02	0.0	5.032666e-01	7.867624e-02	0.0	5.175583e-01	7.686645e-02	0.0	5.317059e-01	7.426595e-02	0.0	5.458166e-01	7.167225e-02	0.0	5.597926e-01	6.869372e-02	0.0	5.736348e-01	6.540447e-02	0.0	5.873978e-01	6.213402e-02	0.0	6.010370e-01	5.875768e-02	0.0	6.145705e-01	5.540744e-02	0.0	6.280388e-01	5.232251e-02	0.0	6.414450e-01	4.957389e-02	0.0	6.547072e-01	4.685479e-02	0.0	6.679795e-01	4.521165e-02	0.0	6.811066e-01	4.373425e-02	0.0	6.940805e-01	4.263200e-02	0.0	7.069142e-01	4.222035e-02	0.0	7.195494e-01	4.181507e-02	0.0	7.319828e-01	4.169441e-02	0.0	7.442025e-01	4.163195e-02	0.0	7.561970e-01	4.141403e-02	0.0	7.679573e-01	4.093127e-02	0.0	7.794844e-01	4.045809e-02	0.0	7.906997e-01	3.909180e-02	0.0	8.016738e-01	3.774872e-02	0.0	8.123301e-01	3.595772e-02	0.0	8.227125e-01	3.402255e-02	0.0	8.328229e-01	3.200747e-02	0.0	8.426581e-01	2.990421e-02	0.0	8.522495e-01	2.787361e-02	0.0	8.616094e-01	2.597719e-02	0.0	8.707204e-01	2.413118e-02	0.0	8.796050e-01	2.244716e-02	0.0	8.882471e-01	2.083681e-02	0.0	8.966470e-01	1.929480e-02	0.0	9.048107e-01	1.784329e-02	0.0	9.127320e-01	1.643488e-02	0.0	9.204140e-01	1.507082e-02	0.0	9.278594e-01	1.374918e-02	0.0	9.350693e-01	1.245724e-02	0.0	9.420458e-01	1.118523e-02	0.0	9.487964e-01	9.954055e-03	0.0	9.553200e-01	8.733933e-03	0.0	9.616263e-01	7.554445e-03	0.0	9.677159e-01	6.394439e-03	0.0	9.735966e-01	5.270449e-03	0.0	9.792704e-01	4.168141e-03	0.0	9.847443e-01	3.097598e-03	0.0	9.900218e-01	2.052458e-03	0.0	9.951070e-01	1.027014e-03	0.0	1.000000e+00	0.000000e+00	0.0	9.950051e-01	2.251251e-04	0.0	9.898215e-01	4.284654e-04	0.0	9.844434e-01	5.793021e-04	0.0	9.788666e-01	6.835089e-04	0.0	9.730869e-01	7.622048e-04	0.0	9.670993e-01	7.805311e-04	0.0	9.608997e-01	7.756473e-04	0.0	9.544837e-01	7.041842e-04	0.0	9.478468e-01	6.165292e-04	0.0	9.409863e-01	4.329990e-04	0.0	9.338962e-01	2.433292e-04	0.0	9.265766e-01	-5.978153e-05	0.0	9.190209e-01	-3.974310e-04	0.0	9.112327e-01	-8.652308e-04	0.0	9.032145e-01	-1.550724e-03	0.0	8.949510e-01	-2.257202e-03	0.0	8.865110e-01	-3.559292e-03	0.0	8.778334e-01	-4.980255e-03	0.0	8.689935e-01	-6.833607e-03	0.0	8.600400e-01	-9.344825e-03	0.0	8.508419e-01	-1.192466e-02	0.0	8.417079e-01	-1.548944e-02	0.0	8.323522e-01	-1.919000e-02	0.0	8.227517e-01	-2.295913e-02	0.0	8.129095e-01	-2.679987e-02	0.0	8.027628e-01	-3.050778e-02	0.0	7.920634e-01	-3.330999e-02	0.0	7.811291e-01	-3.617370e-02	0.0	7.696576e-01	-3.716737e-02	0.0	7.579027e-01	-3.785958e-02	0.0	7.459294e-01	-3.773392e-02	0.0	7.337447e-01	-3.673861e-02	0.0	7.213470e-01	-3.571329e-02	0.0	7.087911e-01	-3.419317e-02	0.0	6.960378e-01	-3.264915e-02	0.0	6.830683e-01	-3.136003e-02	0.0	6.698922e-01	-3.032899e-02	0.0	6.565468e-01	-2.928470e-02	0.0	6.430027e-01	-2.932951e-02	0.0	6.293108e-01	-2.939360e-02	0.0	6.155006e-01	-2.989889e-02	0.0	6.015860e-01	-3.088204e-02	0.0	5.875626e-01	-3.187288e-02	0.0	5.735032e-01	-3.350279e-02	0.0	5.593635e-01	-3.514921e-02	0.0	5.451835e-01	-3.700413e-02	0.0	5.309784e-01	-3.907183e-02	0.0	5.167361e-01	-4.114495e-02	0.0	5.025250e-01	-4.356097e-02	0.0	4.883066e-01	-4.597942e-02	0.0	4.741255e-01	-4.856043e-02	0.0	4.599972e-01	-5.130538e-02	0.0	4.459059e-01	-5.404315e-02	0.0	4.319295e-01	-5.707831e-02	0.0	4.180199e-01	-6.010554e-02	0.0	4.041903e-01	-6.311734e-02	0.0	3.904544e-01	-6.611113e-02	0.0	3.768252e-01	-6.908168e-02	0.0	3.632047e-01	-7.145575e-02	0.0	3.497069e-01	-7.375441e-02	0.0	3.362919e-01	-7.550815e-02	0.0	3.229384e-01	-7.644272e-02	0.0	3.097542e-01	-7.736543e-02	0.0	2.967469e-01	-7.669968e-02	0.0	2.839287e-01	-7.584876e-02	0.0	2.713648e-01	-7.453577e-02	0.0	2.590991e-01	-7.245899e-02	0.0	2.470453e-01	-7.041809e-02	0.0	2.353031e-01	-6.793797e-02	0.0	2.238044e-01	-6.540079e-02	0.0	2.125324e-01	-6.292115e-02	0.0	2.014880e-01	-6.051703e-02	0.0	1.906808e-01	-5.816453e-02	0.0	1.800879e-01	-5.599059e-02	0.0	1.697238e-01	-5.394025e-02	0.0	1.596055e-01	-5.194152e-02	0.0	1.497223e-01	-5.005818e-02	0.0	1.400885e-01	-4.822235e-02	0.0	1.307113e-01	-4.639796e-02	0.0	1.215916e-01	-4.458122e-02	0.0	1.127204e-01	-4.281400e-02	0.0	1.041308e-01	-4.093347e-02	0.0	9.578927e-02	-3.909139e-02	0.0	8.770712e-02	-3.723215e-02	0.0	7.988891e-02	-3.532541e-02	0.0	7.230737e-02	-3.347638e-02	0.0	6.500069e-02	-3.152330e-02	0.0	5.792379e-02	-2.962881e-02	0.0	5.110843e-02	-2.766696e-02	0.0	4.452784e-02	-2.571843e-02	0.0	3.822900e-02	-2.363072e-02	0.0	3.217233e-02	-2.151250e-02	0.0	2.648056e-02	-1.906283e-02	0.0	2.106108e-02	-1.652892e-02	0.0	1.610417e-02	-1.355553e-02	0.0	1.149751e-02	-1.042679e-02	0.0	7.229704e-03	-7.150719e-03	0.0	3.393448e-03	-3.660992e-03	0.0	9.007984e-02	-4.359758e-02	0.0	9.391096e-02	-4.944857e-02	0.0	9.710566e-02	-4.420085e-02	0.0	8.727129e+01	1.802138e+01	0.0	7.549873e+01	-1.333097e+01	0.0	7.601120e+01	-2.520530e+01	0.0	8.669849e+01	-1.838935e+01	0.0	8.600376e+01	-5.154577e+00	0.0	2.768416e+01	2.426295e+01	0.0	3.793763e+01	2.788500e+01	0.0	2.993445e+01	3.492963e+01	0.0	8.190230e+01	3.550555e+01	0.0	7.269761e+01	3.361025e+01	0.0	7.648655e+01	2.447272e+01	0.0	6.897924e+01	-3.584726e+01	0.0	7.605178e+01	-4.347532e+01	0.0	8.135761e+01	-3.637343e+01	0.0	8.676878e+01	-2.849208e+01	0.0	4.841845e+01	3.081240e+01	0.0	5.701465e+01	3.267719e+01	0.0	5.338786e+01	4.050480e+01	0.0	6.426628e+01	-5.187962e+01	0.0	6.111795e+01	-5.952331e+01	0.0	6.900632e+01	-5.986136e+01	0.0	6.879061e+01	6.003804e+01	0.0	7.263877e+01	5.051120e+01	0.0	5.977835e+01	6.569069e+01	0.0	4.843724e+01	-6.428921e+01	0.0	4.591949e+01	-7.361258e+01	0.0	5.439685e+01	-7.204055e+01	0.0	6.836944e+01	-4.494350e+01	0.0	5.010788e+01	7.371149e+01	0.0	3.791595e+01	7.153294e+01	0.0	2.671460e+01	7.130246e+01	0.0	3.217459e+01	6.225091e+01	0.0	5.395261e+01	-5.459950e+01	0.0	5.592492e+01	-6.360398e+01	0.0	3.053962e+01	8.266572e+01	0.0	4.222282e+01	8.052649e+01	0.0	3.730873e+01	-6.659603e+01	0.0	2.652191e+01	-7.476954e+01	0.0	3.856736e+01	-7.980392e+01	0.0	5.551979e+00	4.828460e+01	0.0	-4.568483e+00	4.533660e+01	0.0	1.653857e+00	3.976504e+01	0.0	1.105997e+01	4.037423e+01	0.0	2.041349e+01	8.937854e+01	0.0	1.377478e+01	7.861812e+01	0.0	-3.636315e-02	5.927501e+00	0.0	1.618803e+00	8.744675e+00	0.0	-1.522946e+00	8.375040e+00	0.0	2.736595e+00	4.067279e+00	0.0	2.404192e+00	5.741970e+00	0.0	1.321742e+00	4.326734e+00	0.0	1.001387e+00	-2.936367e-02	0.0	9.953498e-01	-2.158501e-02	0.0	9.882145e-01	-3.063756e-02	0.0	1.035518e+00	1.671471e-02	0.0	1.023594e+00	1.284192e-02	0.0	1.033592e+00	3.881755e-03	0.0	1.002277e+00	4.114064e-03	0.0	1.004007e+00	-7.864970e-04	0.0	8.317138e-01	-3.612537e-02	0.0	8.291353e-01	-2.814309e-02	0.0	8.212931e-01	-3.349330e-02	0.0	2.162367e-01	9.178251e-02	0.0	1.939062e-01	9.029557e-02	0.0	2.029523e-01	7.510763e-02	0.0	2.421628e-01	5.815588e-02	0.0	2.496238e-01	6.060933e-02	0.0	4.135536e-01	-7.012115e-02	0.0	4.243010e-01	-6.977567e-02	0.0	9.173737e-01	2.743460e-02	0.0	9.178414e-01	3.772680e-02	0.0	9.082345e-01	3.217920e-02	0.0	8.394340e-02	-4.188381e-02	0.0	2.854593e-01	7.436779e-02	0.0	2.738942e-01	7.78299
[...]
POINT_DATA 1853

SCALARS Density double 1
LOOKUP_TABLE default
1.291296e+00	1.291418e+00	1.291981e+00	1.292234e+00	1.292145e+00	1.292076e+00	1.292057e+00	1.292023e+00	1.291978e+00	1.291944e+00	1.291918e+00	1.291903e+00	1.291922e+00	1.291968e+00	1.292037e+00	1.292105e+00	1.292166e+00	1.292211e+00	1.292245e+00	1.292269e+00	1.292288e+00	1.292300e+00	1.292310e+00	1.292318e+00	1.292325e+00	1.292333e+00	1.292342e+00	1.292353e+00	1.292367e+00	1.292386e+00	1.292409e+00	1.292438e+00	1.292476e+00	1.292523e+00	1.292576e+00	1.292637e+00	1.292694e+00	1.292735e+00	1.292738e+00	1.292711e+00	1.292662e+00	1.292602e+00	1.292541e+00	1.292479e+00	1.292414e+00	1.292370e+00	1.292407e+00	1.292305e+00	1.291801e+00	1.576708e+00	1.237369e+00	1.251888e+00	1.155300e+00	1.106874e+00	1.056852e+00	1.024311e+00	9.837561e-01	9.525703e-01	9.128132e-01	8.849603e-01	8.481462e-01	8.190190e-01	7.846123e-01	7.831435e-01	9.015841e-01	1.104815e+00	1.187307e+00	1.215303e+00	1.249822e+00	1.284694e+00	1.315539e+00	1.332014e+00	1.359764e+00	1.367665e+00	1.371437e+00	1.382735e+00	1.363590e+00	1.366015e+00	1.351281e+00	1.308534e+00	1.287034e+00	1.252048e+00	1.200787e+00	1.152899e+00	1.114785e+00	1.034069e+00	9.698291e-01	9.409706e-01	8.829611e-01	8.554083e-01	8.090422e-01	7.652276e-01	7.504471e-01	7.190571e-01	7.035481e-01	6.758030e-01	6.476528e-01	6.322698e-01	6.039724e-01	5.908513e-01	5.612734e-01	5.350739e-01	5.164890e-01	4.981178e-01	5.000015e-01	6.260489e-01	9.909878e-01	1.169558e+00	1.169302e+00	1.180686e+00	1.193885e+00	1.201091e+00	1.194371e+00	1.198994e+00	1.190776e+00	1.179366e+00	1.171537e+00	1.156146e+00	1.141513e+00	1.135479e+00	1.120945e+00	1.121258e+00	1.133889e+00	1.138115e+00	1.153882e+00	1.165318e+00	1.176854e+00	1.188136e+00	1.194602e+00	1.200499e+00	1.205367e+00	1.208198e+00	1.212235e+00	1.214984e+00	1.217241e+00	1.220285e+00	1.222912e+00	1.225556e+00	1.228547e+00	1.231479e+00	1.234584e+00	1.237861e+00	1.241046e+00	1.244309e+00	1.248178e+00	1.251043e+00	1.259125e+00	1.246503e+00	1.265037e+00	1.364948e+00	1.345584e+00	1.347221e+00	1.352038e+00	1.352869e+00	1.356234e+00	1.357771e+00	1.360783e+00	1.362894e+00	1.365518e+00	1.369147e+00	1.371592e+00	1.377767e+00	1.377963e+00	1.386252e+00	1.387422e+00	1.384508e+00	1.390780e+00	1.378221e+00	1.377965e+00	1.367180e+00	1.333853e+00	1.305339e+00	1.264260e+00	1.197524e+00	1.135713e+00	1.010370e+00	9.623665e-01	9.853126e-01	1.013908e+00	1.089316e+00	1.148613e+00	1.196348e+00	1.248483e+00	1.282239e+00	1.299836e+00	1.328040e+00	1.339720e+00	1.337170e+00	1.345238e+00	1.338747e+00	1.340776e+00	1.337217e+00	1.327019e+00	1.325117e+00	1.315441e+00	1.312106e+00	1.305307e+00	1.295464e+00	1.290218e+00	1.277766e+00	1.269413e+00	1.257599e+00	1.236389e+00	1.228886e+00	1.207118e+00	1.066076e+00	7.897282e-01	6.700420e-01	6.598226e-01	7.091160e-01	7.479977e-01	8.291431e-01	9.217863e-01	9.610180e-01	1.032401e+00	1.090215e+00	1.135658e+00	1.191366e+00	1.228632e+00	1.255355e+00	1.279220e+00	1.296609e+00	1.304415e+00	1.312704e+00	1.318842e+00	1.320562e+00	1.323539e+00	1.328867e+00	1.329502e+00	1.334448e+00	1.343924e+00	1.349254e+00	1.360095e+00	1.366867e+00	1.376139e+00	1.386851e+00	1.395942e+00	1.404777e+00	1.415155e+00	1.423451e+00	1.441318e+00	1.464243e+00	1.491767e+00	1.539573e+00	1.581733e+00	1.602617e+00	1.698881e+00	1.358831e+00	1.356533e+00	1.351060e+00	1.291816e+00	1.292074e+00	1.292312e+00	1.292146e+00	1.291680e+00	1.291870e+00	1.291987e+00	1.291758e+00	1.292135e+00	1.292140e+00	1.292014e+00	1.292371e+00	1.292361e+00	1.292338e+00	1.292316e+00	1.292023e+00	1.292061e+00	1.291976e+00	1.292433e+00	1.292476e+00	1.292448e+00	1.292040e+00	1.292059e+00	1.292007e+00	1.292565e+00	1.292604e+00	1.292554e+00	1.292383e+00	1.291963e+00	1.291896e+00	1.291818e+00	1.291836e+00	1.292490e+00	1.292521e+00	1.291882e+00	1.291931e+00	1.292646e+00	1.292730e+00	1.292658e+00	1.291481e+00	1.291505e+00	1.291249e+00	1.291419e+00	1.291881e+00	1.291817e+00	1.284877e+00	1.287354e+00	1.288235e+00	1.284247e+00	1.284979e+00	1.281523e+00	1.346751e+00	1.345758e+00	1.355854e+00	1.256082e+00	1.259383e+00	1.264380e+00	1.273553e+00	1.268676e+00	1.296006e+00	1.291369e+00	1.256246e+00	1.307922e+00	1.320708e+00	1.338057e+00	1.297884e+00	1.278702e+00	1.239759e+00	1.236374e+00	1.226346e+00	1.232656e+00	1.224558e+00	1.365441e+00	1.155641e+00	1.199382e+00	1.186977e+00	1.314858e+00	1.321876e+00	1.237776e+00	1.223872e+00	1.352367e+00	1.363741e+00	9.361114e-01	1.355565e+00	1.350618e+00	1.331607e+00	1.350345e+00	1.327125e+00	9.588174e-01	9.902210e-01	1.015599e+00	9.239470e-01	1.369623e+00	1.367484e+00	9.050933e-01	1.358589e+00	1.327435e+00	1.322311e+00	1.304857e+00	7.834606e-01	7.846809e-01	7.573276e-01	7.369550e-01	7.172949e-01	1.300032e+00	1.305856e+00	1.289593e+00	1.290269e+00	6.934595e-01	1.280854e+00	1.270595e+00	1.300279e+00	1.310491e+00	1.305492e+00	1.318496e+00	1.310956e+00	1.305102e+00	1.339069e+00	1.331915e+00	1.341064e+00	1.340191e+00	1.334580e+00	6.913662e-01	7.096180e-01	1.317750e+00	1.309136e+00	1.305602e+00	1.227496e+00	1.226134e+00	1.288608e+00	1.300221e+00	1.286445e+00	1.343940e+00	1.343490e+00	1.341546e+00	1.274955e+00	1.262389e+00	1.275660e+00	1.273888e+00	1.249835e+00	1.249096e+00	7.066770e-01	8.877477e-01	1.257887e+00	1.272942e+00	1.344215e+00	1.342796e+00	1.340883e+00	1.003728e+00	1.213761e+00	1.330690e+00	1.337171e+00	1.302589e+00	1.303025e+00	1.300603e+00	9.104471e-01	8.227348e-01	1.122364e+00	1.184995e+00	1.193805e+00	1.120388e+00	1.140101e+00	1.075529e+00	1.342382e+00	1.339564e+00	1.169946e+00	1.166722e+00	1.178661e+00	1.140824e+00	1.135144e+00	1.172046e+00	1.184404e+00	1.184769e+00	1.199138e+00	1.200669e+00	1.203934e+00	1.203180e+00	1.194082e+00	1.178885e+00	1.243327e+00	1.254741e+00	1.238984e+00	1.364546e+00	1.361794e+00	1.170308e+00	1.156074e+00	1.157518e+00	1.199508e+00	1.196805e+00	1.199891e+00	1.166865e+00	1.162832e+00	1.152377e+00	1.291033e+00	1.291355e+00	1.201053e+00	1.207590e+00	1.266758e+00	1.257712e+00	1.221459e+00	1.196266e+00	1.177622e+00	1.194359e+00	1.070201e+00	9.669144e-01	9.701172e-01	1.192830e+00	1.172878e+00	1.172639e+00	7.472347e-01	9.385456e-01	5.899358e-01	1.187943e+00	1.174404e+00	1.180613e+00	1.321391e+00	1.338025e+00	1.311770e+00	1.212765e+00	1.159409e+00	1.238578e+00	1.123962e+00	1.336238e+00	1.323596e+00	1.331005e+00	1.217851e+00	1.219846e+00	1.214665e+00	1.256987e+00	1.252932e+00	1.262660e+00	1.386654e+00	1.397788e+00	1.393570e+00	1.186560e+00	1.195050e+00	1.191613e+00	1.334978e+00	1.302307e+00	1.208827e+00	1.184904e+00	1.034378e+00	1.085770e+00	1.028957e+00	1.268417e+00	1.255149e+00	1.308255e+00	1.311582e+00	1.320666e+00	1.335893e+00	1.314497e+00	1.375748e+00	1.369215e+00	1.367264e+00	1.372434e+00	1.112875e+00	1.388243e+00	1.386411e+00	1.386020e+00	1.383787e+00	1.386563e+00	1.386374e+00	1.382883e+00	1.383137e+00	1.380056e+00	1.384599e+00	1.385907e+00	1.378985e+00	1.371415e+00	1.364493e+00	1.370472e+00	1.382094e+00	1.378862e+00	1.381112e+00	1.143821e+00	1.370982e+00	1.368562e+00	1.359218e+00	1.362406e+00	1.196297e+00	1.247593e+00	1.229476e+00	1.273754e+00	1.243746e+00	1.270053e+00	1.309401e+00	1.319645e+00	1.280355e+00	1.300823e+00	1.269240e+00	1.096187e+00	1.292750e+00	1.292706e+00	1.249215e+00	1.299109e+00	1.306656e+00	1.308116e+00	1.292775e+00	1.292755e+00	1.292714e+00	1.299933e+00	1.318721e+00	1.311551e+00	1.320081e+00	1.323430e+00	1.320748e+00	1.292669e+00	1.292576e+00	1.292610e+00	1.327830e+00	1.331733e+00	1.327193e+00	1.324706e+00	1.231340e+00	1.231784e+00	1.232313e+00	1.254503e+00	1.247020e+00	1.248435e+00	1.239100e+00	1.243932e+00	1.242912e+00	1.248420e+00	1.246080e+00	1.249684e+00	1.284435e+00	1.281682e+00	1.272417e+00	1.200072e+00	1.208447e+00	1.212513e+00	1.256147e+00	1.259171e+00	1.260626e+00	1.265083e+00	1.256603e+00	1.263083e+00	1.263986e+00	1.264822e+00	1.206698e+00	1.210159e+00	1.214915e+00	1.268470e+00	1.199994e+00	1.113594e+00	1.132355e+00	1.288526e+00	1.259411e+00	1.278786e+00	5.878750e-01	5.370989e-01	5.368332e-01	6.813653e-01	6.313719e-01	7.076920e-01	4.965182e-01	5.245130e-01	6.371416e-01	6.054810e-01	6.318072e-01	5.398466e-01	1.292027e+00	1.291941e+00	9.022162e-01	1.020090e+00	6.341638e-01	6.509163e-01	6.596633e-01	1.247808e+00	1.266457e+00	1.263635e+00	6.635475e-01	6.936717e-01	1.291965e+00	7.547783e-01	7.257789e-01	7.287753e-01	1.281585e+00	1.220242e+00	1.157513e+00	1.228533e+00	1.224285e+00	1.216195e+00	1.028690e+00	1.160600e+00	1.174260e+00	1.292082e+00	1.290662e+00	1.238251e+00	1.249965e+00	7.983728e-01	1.292155e+00	9.704031e-01	9.683337e-01	9.126377e-01	1.016141e+00	1.011352e+00	9.540368e-01	1.292241e+00	1.291706e+00	1.291938e+00	1.292051e+00	1.292169e+00	1.292248e+00	1.291920e+00	1.292477e+00	1.292599e+00	1.292718e+00	1.292225e+00	1.292259e+00	1.292233e+00	1.287300e+00	1.290831e+00	1.291929e+00	1.173927e+00	1.250328e+00	1.196364e+00	1.292289e+00	1.292265e+00	1.292264e+00	1.292320e+00	1.292311e+00	1.292332e+00	1.292273e+00	1.292297e+00	1.292344e+00	1.292359e+00	1.292365e+00	1.292381e+00	1.292454e+00	1.292499e+00	1.292502e+00	1.292405e+00	1.292394e+00	1.292502e+00	1.292473e+00	1.292438e+00	1.292426e+00	1.292348e+00	1.292290e+00	1.292519e+00	1.295312e+00	1.294505e+00	1.294021e+00	1.292518e+00	1.298128e+00	1.295962e+00	1.296906e+00	1.300931e+00	1.297839e+00	1.292570e+00	1.292634e+00	1.306666e+00	1.301850e+00	1.302942e+00	1.367929e+00	1.380909e+00	1.378779e+00	1.379477e+00	1.293050e+00	1.293382e+00	1.293109e+00	1.292685e+00	1.368543e+00	1.352425e+00	1.345597e+00	1.292828e+00	1.292811e+00	1.292889e+00	1.529417e+00	1.614458e+00	1.491766e+00	1.307544e+00	1.311429e+00	1.565599e+00	1.567985e+00	1.534774e+00	1.138306e+00	1.168201e+00	1.176154e+00	1.206455e+00	1.293770e+00	1.293877e+00	1.294376e+00	1.329573e+00	1.331519e+00	1.353168e+00	1.497322e+00	1.472497e+00	1.073541e+00	1.083438e+00	1.318818e+00	1.348101e+00	1.343735e+00	1.340940e+00	1.454610e+00	1.479367e+00	1.471525e+00	1.430443e+00	1.445121e+00	1.430888e+00	1.319721e+00	1.348762e+00	1.355409e+00	1.339200e+00	1.346907e+00	1.299441e+00	1.366042e+00	1.379155e+00	1.292332e+00	1.021982e+00	1.293020e+00	1.292723e+00	1.292867e+00	1.372624e+00	1.368918e+00	1.369505e+00	1.292840e+00	1.293253e+00	1.292846e+00	1.293080e+00	1.292035e+00	1.292113e+00	1.292056e+00	1.292702e+00	1.292750e+00	1.293053e+00	1.291568e+00	1.291471e+00	1.291775e+00	1.292394e+00	1.291783e+00	1.291771e+00	1.292073e+00	1.293254e+00	1.292871e+00	1.293732e+00	1.293118e+00	1.293033e+00	1.009785e+00	1.028169e+00	1.292224e+00	1.292307e+00	1.293233e+00	1.292900e+00	1.294695e+00	1.294493e+00	1.292008e+00	1.291592e+00	1.290623e+00	1.291515e+00	1.291652e+00	1.289086e+00	1.290293e+00	1.292338e+00	1.292538e+00	1.292453e+00	1.292840e+00	1.292931e+00	1.292779e+00	1.292355e+00	1.292365e+00	1.292386e+00	1.292334e+00	1.292351e+00	1.292231e+00	1.291896e+00	1.291869e+00	1.291853e+00	1.292843e+00	1.292851e+00	1.292090e+00	1.292039e+00	1.291993e+00	1.291744e+00	1.291638e+00	1.291812e+00	1.291937e+00	1.291693e+00	1.291714e+00	1.291674e+00	1.292239e+00	1.292342e+00	1.292614e+00	1.292794e+00	1.292583e+00	1.292589e+00	1.292166e+00	1.292101e+00	1.292180e+00	1.292369e+00	1.291979e+00	1.326285e+00	1.279986e+00	1.332598e+00	1.350147e+00	1.341790e+00	1.291899e+00	1.293400e+00	1.292791e+00	1.292876e+00	1.291861e+00	1.291698e+00	1.291761e+00	1.292206e+00	1.292119e+00	1.292383e+00	1.292445e+00	1.292413e+00	1.292437e+00	1.292770e+00	1.292863e+00	1.293773e+00	1.293837e+00	1.293947e+00	1.293062e+00	1.293814e+00	1.291569e+00	1.291604e+00	1.292802e+00	1.293166e+00	1.294655e+00	1.293542e+00	1.291141e+00	1.291021e+00	1.163093e+00	1.292457e+00	1.291871e+00	1.291848e+00	1.292308e+00	1.292421e+00	1.292358e+00	1.292388e+00	1.292432e+00	1.292448e+00	1.292191e+00	1.292759e+00	1.292655e+00	1.292729e+00	1.292748e+00	1.292068e+00	1.291738e+00	1.292788e+00	1.292350e+00	1.291933e+00	1.292415e+00	1.292504e+00	1.292577e+00	1.291474e+00	1.292389e+00	1.292963e+00	1.292699e+00	1.055692e+00	1.291843e+00	1.291609e+00	1.292705e+00	1.292570e+00	1.292751e+00	1.291837e+00	1.291907e+00	1.291810e+00	1.291323e+00	1.291613e+00	1.291635e+00	1.292970e+00	1.292563e+00	1.292511e+00	1.291960e+00	1.291987e+00	1.292378e+00	1.292480e+00	1.292542e+00	1.292058e+00	1.292104e+00	1.290907e+00	1.291588e+00	1.291863e+00	1.292674e+00	1.291871e+00	1.292648e+00	1.292951e+00	1.291930e+00	1.291897e+00	1.291744e+00	1.292716e+00	1.292579e+00	1.291727e+00	1.291770e+00	1.291692e+00	1.292483e+00	1.292367e+00	8.187442e-01	8.590047e-01	7.930529e-01	1.291876e+00	1.292603e+00	1.472179e+00	1.453402e+00	1.486672e+00	1.289904e+00	1.292037e+00	1.292137e+00	1.289934e+00	1.292132e+00	1.292588e+00	1.292080e+00	1.291513e+00	1.291101e+00	1.290413e+00	1.279964e+00	1.289468e+00	1.280900e+00	1.294445e+00	1.295099e+00	1.294372e+00	1.304612e+00	1.311346e+00	1.311109e+00	1.289035e+00	1.291301e+00	1.290826e+00	1.292571e+00	1.290386e+00	1.293386e+00	1.521484e+00	1.501247e+00	1.295334e+00	1.296319e+00	1.289479e+00	1.289668e+00	1.021154e+00	9.664740e-01	1.290877e+00	1.290315e+00	1.286995e+00	1.288362e+00	1.290786e+00	1.296529e+00	1.358409e+00	1.355445e+00	1.293238e+00	1.292965e+00	1.294529e+00	1.292846e+00	1.288838e+00	1.292621e+00	1.296047e+00	1.295812e+00	1.297629e+00	1.297077e+00	1.306224e+00	1.315209e+00	1.308360e+00	1.287530e+00	1.291727e+00	1.288109e+00	1.295814e+00	1.302946e+00	1.295518e+00	1.295794e+00	1.297508e+00	1.316751e+00	1.327024e+00	1.317380e+00	1.299273e+00	1.275503e+00	1.290180e+00	1.291907e+00	1.299489e+00	1.288546e+00	1.280267e+00	1.295090e+00	1.262155e+00	1.226451e+00	1.265375e+00	1.280927e+00	1.297250e+00	1.295688e+00	1.298852e+00	1.300396e+00	1.298543e+00	1.331221e+00	1.342437e+00	1.298271e+00	1.283207e+00	1.295721e+00	1.068516e+00	5.861385e-01	5.970859e-01	1.280892e+00	1.268771e+00	1.239966e+00	1.299755e+00	1.297491e+00	1.300970e+00	1.439332e+00	1.404948e+00	1.417395e+00	1.285472e+00	1.301392e+00	1.278866e+00	1.302727e+00	1.302634e+00	1.301352e+00	1.305892e+00	1.404000e+00	1.414284e+00	1.350017e+00	1.385017e+00	1.294577e+00	1.278847e+00	1.285629e+00	1.292878e+00	1.301141e+00	1.297689e+00	1.288743e+00	1.170414e+00	1.211746e+00	1.149337e+00	1.296036e+00	1.298086e+00	1.301017e+00	1.289729e+00	1.289832e+00	1.292034e+00	1.358344e+00	1.297255e+00	8.843363e-01	1.249192e+00	1.278394e+00	1.138062e+00	1.064650e+00	1.323985e+00	1.311573e+00	1.310186e+00	1.306643e+00	1.316762e+00	7.599405e-01	1.305799e+00	1.282995e+00	1.293171e+00	1.295960e+00	1.281097e+00	1.294903e+00	1.296241e+00	1.279605e+00	1.284449e+00	1.301938e+00	1.305150e+00	1.284098e+00	1.269280e+00	1.300551e+00	1.320024e+00	1.320324e+00	1.334541e+00	1.262031e+00	1.307299e+00	1.261098e+00	1.285794e+00	1.573180e+00	1.543466e+00	1.287706e+00	1.206584e+00	1.242646e+00	1.235098e+00	1.305480e+00	1.305180e+00	1.297479e+00	1.294811e+00	1.298985e+00	1.291971e+00	1.157354e+00	1.203489e+00	1.305178e+00	1.290903e+00	1.300209e+00	1.316428e+00	1.297785e+00	1.231037e+00	1.278168e+00	1.229283e+00	1.233897e+00	1.233197e+00	1.337211e+00	1.326374e+00	1.325021e+00	1.292027e+00	1.377144e+00	1.382951e+00	1.347240e+00	1.316748e+00	1.262134e+00	1.268603e+00	1.261114e+00	1.281919e+00	1.270137e+00	1.276128e+00	1.290574e+00	1.293761e+00	1.208682e+00	1.276148e+00	1.299945e+00	1.302488e+00	1.288102e+00	1.258066e+00	1.252040e+00	1.301977e+00	1.264133e+00	1.332251e+00	1.163767e+00	1.212698e+00	1.260130e+00	1.173655e+00	1.259561e+00	1.199630e+00	1.182948e+00	1.586465e+00	1.588658e+00	1.609921e+00	1.317292e+00	1.158609e+00	1.119605e+00	1.100889e+00	1.318309e+00	1.331182e+00	1.351932e+00	1.354374e+00	1.027443e+00	9.475194e-01	8.922389e-01	9.698676e-01	7.496252e-01	8.550909e-01	8.254966e-01	1.316440e+00	1.366479e+00	1.347747e+00	1.338737e+00	1.207089e+00	1.142384e+00	1.193065e+00	1.295303e+00	1.285305e+00	1.294761e+00	1.300937e+00	1.313905e+00	1.322456e+00	1.309957e+00	1.106922e+00	1.297874e+00	1.298353e+00	1.292927e+00	1.294471e+00	1.298318e+00	1.337122e+00	1.325503e+00	1.181932e+00	1.291054e+00	1.198046e+00	1.105621e+00	1.240125e+00	1.251813e+00	1.273561e+00	1.320640e+00	1.316285e+00	1.290548e+00	1.324113e+00	1.172937e+00	1.150425e+00	1.279499e+00	1.264064e+00	1.265709e+00	1.379617e+00	1.477140e+00	1.510450e+00	1.503203e+00	1.293171e+00	1.290772e+00	1.301838e+00	1.288601e+00	1.288285e+00	1.334123e+00	1.201160e+00	1.225281e+00	1.252987e+00	1.324040e+00	1.294097e+00	1.337529e+00	1.331164e+00	1.148476e+00	1.056931e+00	1.138832e+00	1.049060e+00	8.304473e-01	1.417619e+00	1.448172e+00	1.431586e+00	1.224987e+00	1.224921e+00	1.212014e+00	1.303340e+00	1.255284e+00	1.357133e+00	1.372622e+00	1.392125e+00	1.397776e+00	1.302739e+00	1.294913e+00	8.296197e-01	8.119830e-01	1.237776e+00	9.792334e-01	7.861872e-01	8.485617e-01	1.281296e+00	1.295685e+00	1.186857e+00	1.114012e+00	1.280727e+00	1.300059e+00	1.136357e+00	1.349359e+00	1.318463e+00	1.322147e+00	1.345833e+00	1.338205e+00	1.287544e+00	1.285682e+00	1.241052e+00	1.368236e+00	1.333433e+00	1.339335e+00	1.193465e+00	1.258521e+00	1.203899e+00	1.394162e+00	5.749395e-01	5.703875e-01	1.193904e+00	1.057144e+00	1.081732e+00	1.275825e+00	1.295837e+00	1.284996e+00	1.248832e+00	1.207000e+00	1.246880e+00	1.180790e+00	1.343973e+00	1.337990e+00	1.274388e+00	1.221873e+00	1.140170e+00	1.145936e+00	1.352376e+00	1.338030e+00	1.309195e+00	1.334940e+00	1.267105e+00	1.287058e+00	9.315459e-01	8.699232e-01	8.483005e-01	8.186718e-01	1.388439e+00	1.394602e+00	1.258363e+00	1.561956e+00	1.275671e+00	1.207814e+00	8.062771e-01	7.643551e-01	7.530218e-01	1.266835e+00	1.291446e+00	1.261875e+00	1.287828e+00	1.275994e+00	6.773532e-01	9.980378e-01	1.198726e+00	1.195040e+00	1.285399e+00	1.254729e+00	1.285754e+00	1.282701e+00	1.322526e+00	8.310557e-01	1.268483e+00	1.175906e+00	1.232274e+00	7.073014e-01	7.169473e-01	6.699629e-01	1.133521e+00	1.269642e+00	1.274808e+00	1.296332e+00	1.212944e+00	1.212830e+00	1.235523e+00	1.226487e+00	1.299473e+00	1.265482e+00	1.338663e+00	1.117733e+00	1.040738e+00	1.412585e+00	1.324968e+00	1.391438e+00	1.412445e+00	1.417505e+00	1.329223e+00	1.324776e+00	8.682195e-01	8.475430e-01	1.343519e+00	1.345632e+00	1.355635e+00	1.330370e+00	1.290740e+00	1.287789e+00	1.325410e+00	1.329669e+00	1.320883e+00	1.246144e+00	1.331146e+00	1.335942e+00	1.278522e+00	1.341633e+00	1.316791e+00	1.423418e+00	1.375651e+00	1.361563e+00	1.530979e+00	1.504576e+00	1.502737e+00	1.048590e+00	9.777943e-01	1.211760e+00	1.211954e+00	1.209814e+00	1.225461e+00	1.191691e+00	1.228407e+00	7.283704e-01	1.197813e+00	1.015306e+00	9.988380e-01	1.060839e+00	1.042581e+00	1.204447e+00	8.536604e-01	8.398910e-01	1.086542e+00	1.201636e+00	1.017451e+00	1.093402e+00	1.234498e+00	1.236608e+00	1.264246e+00	1.287068e+00	1.177218e+00	1.061506e+00	9.940755e-01	1.095528e+00	1.025302e+00	1.435159e+00	1.416148e+00	1.303736e+00	1.266196e+00	1.347884e+00	1.354121e+00	1.353877e+00	1.332976e+00	7.663738e-01	7.709799e-01	8.198282e-01	8.008005e-01	1.423448e+00	1.461867e+00	1.439189e+00	1.314663e+00	1.323534e+00	1.221940e+00	1.164292e+00	1.186114e+00	1.236676e+00	1.040333e+00	9.890793e-01	1.344098e+00	1.408955e+00	1.467355e+00	1.444665e+00	1.386685e+00	1.366434e+00	1.105093e+00	1.189690e+00	1.297623e+00	1.264987e+00	1.268621e+00	7.301017e-01	6.000080e-01	1.242077e+00	1.247802e+00	1.251003e+00	1.318107e+00	1.329713e+00	1.335005e+00	1.445873e+00	1.538050e+00	1.235039e+00	1.223354e+00	1.227360e+00	1.243144e+00	1.378622e+00	1.366179e+00	1.135741e+00	1.090288e+00	1.067777e+00	1.207299e+00	1.180316e+00	1.214391e+00	1.224876e+00	1.206744e+00	1.302865e+00	1.277443e+00	1.278641e+00	1.223908e+00	1.253117e+00	1.288720e+00	1.444144e+00	1.417934e+00	1.366186e+00	1.332764e+00	1.346276e+00	1.267944e+00	9.386109e-01	1.265658e+00	1.265388e+00	1.247316e+00	1.303404e+00	1.308388e+00	1.290185e+00	1.314466e+00	1.274025e+00	1.307896e+00	1.235466e+00	1.186988e+00	1.306707e+00	1.328183e+00	1.324724e+00	1.314008e+00	1.286463e+00	1.314582e+00	1.199065e+00	1.019829e+00	6.487810e-01	6.079626e-01	1.450471e+00	1.468623e+00	1.139902e+00	1.254466e+00	1.240941e+00	1.238572e+00	9.391093e-01	1.041739e+00	1.125422e+00	1.250930e+00	1.206742e+00	1.198491e+00	7.669143e-01	6.741352e-01	1.307242e+00	1.271709e+00	1.124846e+00	1.369758e+00	1.372642e+00	1.254028e+00	1.252508e+00	1.255471e+00	1.144199e+00	1.166636e+00	1.153018