# vtk DataFile Version 3.0
vtk output
ASCII
DATASET UNSTRUCTURED_GRID
POINTS 198 double
0.000000e+00	0.000000e+00	0.0	3.219923e-03	3.825192e-03	0.0	6.630954e-03	7.717916e-03	0.0	1.099911e-02	1.085865e-02	0.0	1.557026e-02	1.404426e-02	0.0	2.073334e-02	1.664239e-02	0.0	2.610355e-02	1.928360e-02	0.0	3.189909e-02	2.148372e-02	0.0	3.792131e-02	2.368826e-02	0.0	4.429535e-02	2.553683e-02	0.0	5.092248e-02	2.730244e-02	0.0	5.785696e-02	2.878629e-02	0.0	6.506629e-02	3.006045e-02	0.0	7.254707e-02	3.116430e-02	0.0	8.031438e-02	3.188689e-02	0.0	8.833710e-02	3.246220e-02	0.0	9.662390e-02	3.274856e-02	0.0	1.051621e-01	3.286167e-02	0.0	1.139530e-01	3.285052e-02	0.0	1.229951e-01	3.274525e-02	0.0	1.322901e-01	3.259513e-02	0.0	1.418389e-01	3.260075e-02	0.0	1.516417e-01	3.275709e-02	0.0	1.616926e-01	3.301499e-02	0.0	1.719570e-01	3.398617e-02	0.0	1.824712e-01	3.498099e-02	0.0	1.931212e-01	3.673278e-02	0.0	2.039377e-01	3.902149e-02	0.0	2.149915e-01	4.136041e-02	0.0	2.259883e-01	4.484719e-02	0.0	2.372056e-01	4.841260e-02	0.0	2.486062e-01	5.214875e-02	0.0	2.601470e-01	5.616587e-02	0.0	2.718905e-01	6.025358e-02	0.0	2.839262e-01	6.411395e-02	0.0	2.962029e-01	6.787647e-02	0.0	3.086693e-01	7.166231e-02	0.0	3.215944e-01	7.439100e-02	0.0	3.346854e-01	7.715471e-02	0.0	3.480258e-01	7.937842e-02	0.0	3.616148e-01	8.099708e-02	0.0	3.753377e-01	8.263168e-02	0.0	3.892634e-01	8.328471e-02	0.0	4.033001e-01	8.391725e-02	0.0	4.174385e-01	8.414314e-02	0.0	4.316648e-01	8.395059e-02	0.0	4.459574e-01	8.373939e-02	0.0	4.602728e-01	8.278670e-02	0.0	4.746257e-01	8.183152e-02	0.0	4.889595e-01	8.043489e-02	0.0	5.032666e-01	7.867624e-02	0.0	5.175583e-01	7.686645e-02	0.0	5.317059e-01	7.426595e-02	0.0	5.458166e-01	7.167225e-02	0.0	5.597926e-01	6.869372e-02	0.0	5.736348e-01	6.540447e-02	0.0	5.873978e-01	6.213402e-02	0.0	6.010370e-01	5.875768e-02	0.0	6.145705e-01	5.540744e-02	0.0	6.280388e-01	5.232251e-02	0.0	6.414450e-01	4.957389e-02	0.0	6.547072e-01	4.685479e-02	0.0	6.679795e-01	4.521165e-02	0.0	6.811066e-01	4.373425e-02	0.0	6.940805e-01	4.263200e-02	0.0	7.069142e-01	4.222035e-02	0.0	7.195494e-01	4.181507e-02	0.0	7.319828e-01	4.169441e-02	0.0	7.442025e-01	4.163195e-02	0.0	7.561970e-01	4.141403e-02	0.0	7.679573e-01	4.093127e-02	0.0	7.794844e-01	4.045809e-02	0.0	7.906997e-01	3.909180e-02	0.0	8.016738e-01	3.774872e-02	0.0	8.123301e-01	3.595772e-02	0.0	8.227125e-01	3.402255e-02	0.0	8.328229e-01	3.200747e-02	0.0	8.426581e-01	2.990421e-02	0.0	8.522495e-01	2.787361e-02	0.0	8.616094e-01	2.597719e-02	0.0	8.707204e-01	2.413118e-02	0.0	8.796050e-01	2.244716e-02	0.0	8.882471e-01	2.083681e-02	0.0	8.966470e-01	1.929480e-02	0.0	9.048107e-01	1.784329e-02	0.0	9.127320e-01	1.643488e-02	0.0	9.204140e-01	1.507082e-02	0.0	9.278594e-01	1.374918e-02	0.0	9.350693e-01	1.245724e-02	0.0	9.420458e-01	1.118523e-02	0.0	9.487964e-01	9.954055e-03	0.0	9.553200e-01	8.733933e-03	0.0	9.616263e-01	7.554445e-03	0.0	9.677159e-01	6.394439e-03	0.0	9.735966e-01	5.270449e-03	0.0	9.792704e-01	4.168141e-03	0.0	9.847443e-01	3.097598e-03	0.0	9.900218e-01	2.052458e-03	0.0	9.951070e-01	1.027014e-03	0.0	1.000000e+00	0.000000e+00	0.0	9.950051e-01	2.251251e-04	0.0	9.898215e-01	4.284654e-04	0.0	9.844434e-01	5.793021e-04	0.0	9.788666e-01	6.835089e-04	0.0	9.730869e-01	7.622048e-04	0.0	9.670993e-01	7.805311e-04	0.0	9.608997e-01	7.756473e-04	0.0	9.544837e-01	7.041842e-04	0.0	9.478468e-01	6.165292e-04	0.0	9.409863e-01	4.329990e-04	0.0	9.338962e-01	2.433292e-04	0.0	9.265766e-01	-5.978153e-05	0.0	9.190209e-01	-3.974310e-04	0.0	9.112327e-01	-8.652308e-04	0.0	9.032145e-01	-1.550724e-03	0.0	8.949510e-01	-2.257202e-03	0.0	8.865110e-01	-3.559292e-03	0.0	8.778334e-01	-4.980255e-03	0.0	8.689935e-01	-6.833607e-03	0.0	8.600400e-01	-9.344825e-03	0.0	8.508419e-01	-1.192466e-02	0.0	8.417079e-01	-1.548944e-02	0.0	8.323522e-01	-1.919000e-02	0.0	8.227517e-01	-2.295913e-02	0.0	8.129095e-01	-2.679987e-02	0.0	8.027628e-01	-3.050778e-02	0.0	7.920634e-01	-3.330999e-02	0.0	7.811291e-01	-3.617370e-02	0.0	7.696576e-01	-3.716737e-02	0.0	7.579027e-01	-3.785958e-02	0.0	7.459294e-01	-3.773392e-02	0.0	7.337447e-01	-3.673861e-02	0.0	7.213470e-01	-3.571329e-02	0.0	7.087911e-01	-3.419317e-02	0.0	6.960378e-01	-3.264915e-02	0.0	6.830683e-01	-3.136003e-02	0.0	6.698922e-01	-3.032899e-02	0.0	6.565468e-01	-2.928470e-02	0.0	6.430027e-01	-2.932951e-02	0.0	6.293108e-01	-2.939360e-02	0.0	6.155006e-01	-2.989889e-02	0.0	6.015860e-01	-3.088204e-02	0.0	5.875626e-01	-3.187288e-02	0.0	5.735032e-01	-3.350279e-02	0.0	5.593635e-01	-3.514921e-02	0.0	5.451835e-01	-3.700413e-02	0.0	5.309784e-01	-3.907183e-02	0.0	5.167361e-01	-4.114495e-02	0.0	5.025250e-01	-4.356097e-02	0.0	4.883066e-01	-4.597942e-02	0.0	4.741255e-01	-4.856043e-02	0.0	4.599972e-01	-5.130538e-02	0.0	4.459059e-01	-5.404315e-02	0.0	4.319295e-01	-5.707831e-02	0.0	4.180199e-01	-6.010554e-02	0.0	4.041903e-01	-6.311734e-02	0.0	3.904544e-01	-6.611113e-02	0.0	3.768252e-01	-6.908168e-02	0.0	3.632047e-01	-7.145575e-02	0.0	3.497069e-01	-7.375441e-02	0.0	3.362919e-01	-7.550815e-02	0.0	3.229384e-01	-7.644272e-02	0.0	3.097542e-01	-7.736543e-02	0.0	2.967469e-01	-7.669968e-02	0.0	2.839287e-01	-7.584876e-02	0.0	2.713648e-01	-7.453577e-02	0.0	2.590991e-01	-7.245899e-02	0.0	2.470453e-01	-7.041809e-02	0.0	2.353031e-01	-6.793797e-02	0.0	2.238044e-01	-6.540079e-02	0.0	2.125324e-01	-6.292115e-02	0.0	2.014880e-01	-6.051703e-02	0.0	1.906808e-01	-5.816453e-02	0.0	1.800879e-01	-5.599059e-02	0.0	1.697238e-01	-5.394025e-02	0.0	1.596055e-01	-5.194152e-02	0.0	1.497223e-01	-5.005818e-02	0.0	1.400885e-01	-4.822235e-02	0.0	1.307113e-01	-4.639796e-02	0.0	1.215916e-01	-4.458122e-02	0.0	1.127204e-01	-4.281400e-02	0.0	1.041308e-01	-4.093347e-02	0.0	9.578927e-02	-3.909139e-02	0.0	8.770712e-02	-3.723215e-02	0.0	7.988891e-02	-3.532541e-02	0.0	7.230737e-02	-3.347638e-02	0.0	6.500069e-02	-3.152330e-02	0.0	5.792379e-02	-2.962881e-02	0.0	5.110843e-02	-2.766696e-02	0.0	4.452784e-02	-2.571843e-02	0.0	3.822900e-02	-2.363072e-02	0.0	3.217233e-02	-2.151250e-02	0.0	2.648056e-02	-1.906283e-02	0.0	2.106108e-02	-1.652892e-02	0.0	1.610417e-02	-1.355553e-02	0.0	1.149751e-02	-1.042679e-02	0.0	7.229704e-03	-7.150719e-03	0.0	3.393448e-03	-3.660992e-03	0.0	
CELLS 198	594
2	118	119	2	119	120	2	120	121	2	121	122	2	122	123	2	123	124	2	124	125	2	125	126	2	126	127	2	127	128	2	128	129	2	129	130	2	130	131	2	131	132	2	132	133	2	133	134	2	134	135	2	135	136	2	136	137	2	137	138	2	138	139	2	139	140	2	140	141	2	141	142	2	142	143	2	143	144	2	144	145	2	145	146	2	146	147	2	147	148	2	148	149	2	149	150	2	150	151	2	151	152	2	152	153	2	153	154	2	154	155	2	155	156	2	156	157	2	157	158	2	158	159	2	159	160	2	160	161	2	161	162	2	162	163	2	163	164	2	164	165	2	165	166	2	166	167	2	167	168	2	168	169	2	169	170	2	170	171	2	171	172	2	172	173	2	173	174	2	174	175	2	175	176	2	176	177	2	177	178	2	178	179	2	179	180	2	180	181	2	181	182	2	182	183	2	183	184	2	184	185	2	185	186	2	186	187	2	187	188	2	188	189	2	189	190	2	190	191	2	191	192	2	0	1	2	1	2	2	2	3	2	3	4	2	4	5	2	5	6	2	6	7	2	7	8	2	8	9	2	9	10	2	10	11	2	11	12	2	12	13	2	13	14	2	14	15	2	15	16	2	16	17	2	17	18	2	18	19	2	19	20	2	20	21	2	21	22	2	22	23	2	23	24	2	24	25	2	25	26	2	26	27	2	27	28	2	28	29	2	29	30	2	30	31	2	31	32	2	32	33	2	33	34	2	34	35	2	35	36	2	36	37	2	37	38	2	38	39	2	39	40	2	40	41	2	41	42	2	42	43	2	43	44	2	44	45	2	45	46	2	46	47	2	47	48	2	48	49	2	49	50	2	50	51	2	51	52	2	52	53	2	53	54	2	54	55	2	55	56	2	56	57	2	57	58	2	192	193	2	193	194	2	194	195	2	195	196	2	196	197	2	197	0	2	58	59	2	59	60	2	60	61	2	61	62	2	62	63	2	63	64	2	64	65	2	65	66	2	66	67	2	67	68	2	68	69	2	69	70	2	70	71	2	71	72	2	72	73	2	73	74	2	74	75	2	75	76	2	76	77	2	77	78	2	78	79	2	79	80	2	80	81	2	81	82	2	82	83	2	83	84	2	84	85	2	85	86	2	86	87	2	87	88	2	88	89	2	89	90	2	90	91	2	91	92	2	92	93	2	93	94	2	94	95	2	95	96	2	96	97	2	97	98	2	98	99	2	99	100	2	100	101	2	101	102	2	102	103	2	103	104	2	104	105	2	105	106	2	106	107	2	107	108	2	108	109	2	109	110	2	110	111	2	111	112	2	112	113	2	113	114	2	114	115	2	115	116	2	116	117	2	117	118	
CELL_TYPES 198
3	3	3	3	3	3	3	3	3	3	3	3	3	3	3	3	3	3	3	3	3	3	3	3	3	3	3	3	3	3	3	3	3	3	3	3	3	3	3	3	3	3	3	3	3	3	3	3	3	3	3	3	3	3	3	3	3	3	3	3	3	3	3	3	3	3	3	3	3	3	3	3	3	3	3	3	3	3	3	3	3	3	3	3	3	3	3	3	3	3	3	3	3	3	3	3	3	3	3	3	3	3	3	3	3	3	3	3	3	3	3	3	3	3	3	3	3	3	3	3	3	3	3	3	3	3	3	3	3	3	3	3	3	3	3	3	3	3	3	3	3	3	3	3	3	3	3	3	3	3	3	3	3	3	3	3	3	3	3	3	3	3	3	3	3	3	3	3	3	3	3	3	3	3	3	3	3	3	3	3	3	3	3	3	3	3	3	3	3	3	3	3	3	3	3	3	3	3	
POINT_DATA 198

SCALARS Density double 1
LOOKUP_TABLE default
1.576708e+00	1.237369e+00	1.251888e+00	1.155300e+00	1.106874e+00	1.056852e+00	1.024311e+00	9.837561e-01	9.525703e-01	9.128132e-01	8.849603e-01	8.481462e-01	8.190190e-01	7.846123e-01	7.831435e-01	9.015841e-01	1.104815e+00	1.187307e+00	1.215303e+00	1.249822e+00	1.284694e+00	1.315539e+00	1.332014e+00	1.359764e+00	1.367665e+00	1.371437e+00	1.382735e+00	1.363590e+00	1.366015e+00	1.351281e+00	1.308534e+00	1.287034e+00	1.252048e+00	1.200787e+00	1.152899e+00	1.114785e+00	1.034069e+00	9.698291e-01	9.409706e-01	8.829611e-01	8.554083e-01	8.090422e-01	7.652276e-01	7.504471e-01	7.190571e-01	7.035481e-01	6.758030e-01	6.476528e-01	6.322698e-01	6.039724e-01	5.908513e-01	5.612734e-01	5.350739e-01	5.164890e-01	4.981178e-01	5.000015e-01	6.260489e-01	9.909878e-01	1.169558e+00	1.169302e+00	1.180686e+00	1.193885e+00	1.201091e+00	1.194371e+00	1.198994e+00	1.190776e+00	1.179366e+00	1.171537e+00	1.156146e+00	1.141513e+00	1.135479e+00	1.120945e+00	1.121258e+00	1.133889e+00	1.138115e+00	1.153882e+00	1.165318e+00	1.176854e+00	1.188136e+00	1.194602e+00	1.200499e+00	1.205367e+00	1.208198e+00	1.212235e+00	1.214984e+00	1.217241e+00	1.220285e+00	1.222912e+00	1.225556e+00	1.228547e+00	1.231479e+00	1.234584e+00	1.237861e+00	1.241046e+00	1.244309e+00	1.248178e+00	1.251043e+00	1.259125e+00	1.246503e+00	1.265037e+00	1.364948e+00	1.345584e+00	1.347221e+00	1.352038e+00	1.352869e+00	1.356234e+00	1.357771e+00	1.360783e+00	1.362894e+00	1.365518e+00	1.369147e+00	1.371592e+00	1.377767e+00	1.377963e+00	1.386252e+00	1.387422e+00	1.384508e+00	1.390780e+00	1.378221e+00	1.377965e+00	1.367180e+00	1.333853e+00	1.305339e+00	1.264260e+00	1.197524e+00	1.135713e+00	1.010370e+00	9.623665e-01	9.853126e-01	1.013908e+00	1.089316e+00	1.148613e+00	1.196348e+00	1.248483e+00	1.282239e+00	1.299836e+00	1.328040e+00	1.339720e+00	1.337170e+00	1.345238e+00	1.338747e+00	1.340776e+00	1.337217e+00	1.327019e+00	1.325117e+00	1.315441e+00	1.312106e+00	1.305307e+00	1.295464e+00	1.290218e+00	1.277766e+00	1.269413e+00	1.257599e+00	1.236389e+00	1.228886e+00	1.207118e+00	1.066076e+00	7.897282e-01	6.700420e-01	6.598226e-01	7.091160e-01	7.479977e-01	8.291431e-01	9.217863e-01	9.610180e-01	1.032401e+00	1.090215e+00	1.135658e+00	1.191366e+00	1.228632e+00	1.255355e+00	1.279220e+00	1.296609e+00	1.304415e+00	1.312704e+00	1.318842e+00	1.320562e+00	1.323539e+00	1.328867e+00	1.329502e+00	1.334448e+00	1.343924e+00	1.349254e+00	1.360095e+00	1.366867e+00	1.376139e+00	1.386851e+00	1.395942e+00	1.404777e+00	1.415155e+00	1.423451e+00	1.441318e+00	1.464243e+00	1.491767e+00	1.539573e+00	1.581733e+00	1.602617e+00	1.698881e+00	
VECTORS Momentum double
5.507971e+00	1.822666e+02	0.0	1.633248e+02	1.812276e+02	0.0	2.042307e+02	1.841535e+02	0.0	2.376881e+02	1.676009e+02	0.0	2.617543e+02	1.555485e+02	0.0	2.763824e+02	1.374203e+02	0.0	2.875268e+02	1.247358e+02	0.0	2.942657e+02	1.096536e+02	0.0	2.999664e+02	9.804990e+01	0.0	3.016420e+02	8.379515e+01	0.0	3.044768e+02	7.301084e+01	0.0	3.039319e+02	5.946530e+01	0.0	3.045261e+02	4.930372e+01	0.0	3.007624e+02	3.664071e+01	0.0	2.957646e+02	2.432045e+01	0.0	2.996258e+02	1.421990e+01	0.0	2.975865e+02	8.018755e+00	0.0	2.936824e+02	2.011396e+00	0.0	2.879139e+02	-1.909432e+00	0.0	2.811240e+02	-3.880098e+00	0.0	2.718930e+02	-2.077812e+00	0.0	2.658352e+02	2.451152e+00	0.0	2.567115e+02	5.205101e+00	0.0	2.509233e+02	1.535490e+01	0.0	2.471722e+02	2.354274e+01	0.0	2.421466e+02	3.137192e+01	0.0	2.433191e+02	4.625912e+01	0.0	2.442157e+02	5.122459e+01	0.0	2.442160e+02	6.441962e+01	0.0	2.515297e+02	8.025612e+01	0.0	2.612501e+02	8.425355e+01	0.0	2.686647e+02	9.085823e+01	0.0	2.785936e+02	9.698966e+01	0.0	2.884900e+02	9.647260e+01	0.0	2.953494e+02	9.230362e+01	0.0	3.047463e+02	9.373444e+01	0.0	3.106270e+02	8.086412e+01	0.0	3.112354e+02	6.565245e+01	0.0	3.141902e+02	5.944030e+01	0.0	3.103356e+02	4.419753e+01	0.0	3.103557e+02	3.684776e+01	0.0	3.062200e+02	2.549009e+01	0.0	2.992803e+02	1.352782e+01	0.0	2.985959e+02	8.907349e+00	0.0	2.920748e+02	4.499277e-01	0.0	2.899050e+02	-3.963727e+00	0.0	2.838629e+02	-1.109132e+01	0.0	2.766827e+02	-1.830017e+01	0.0	2.735103e+02	-2.239215e+01	0.0	2.651043e+02	-2.919286e+01	0.0	2.620330e+02	-3.254856e+01	0.0	2.526664e+02	-3.871119e+01	0.0	2.443511e+02	-4.467627e+01	0.0	2.370849e+02	-4.710542e+01	0.0	2.332033e+02	-5.177973e+01	0.0	2.231249e+02	-5.252914e+01	0.0	2.265695e+02	-5.633167e+01	0.0	2.173490e+02	-5.270069e+01	0.0	2.011854e+02	-4.413973e+01	0.0	1.937927e+02	-4.093015e+01	0.0	1.850078e+02	-3.753811e+01	0.0	1.795230e+02	-2.962137e+01	0.0	1.808615e+02	-2.123237e+01	0.0	1.804769e+02	-1.798584e+01	0.0	1.822769e+02	-1.071378e+01	0.0	1.872319e+02	-5.956867e+00	0.0	1.918258e+02	-4.062418e+00	0.0	1.982472e+02	-1.441451e+00	0.0	2.051765e+02	-2.318618e+00	0.0	2.100787e+02	-6.281312e+00	0.0	2.159790e+02	-8.696187e+00	0.0	2.184229e+02	-1.753104e+01	0.0	2.156007e+02	-2.626701e+01	0.0	2.128605e+02	-3.065000e+01	0.0	2.071439e+02	-3.678941e+01	0.0	2.008867e+02	-3.873394e+01	0.0	1.946793e+02	-4.015897e+01	0.0	1.881881e+02	-4.005330e+01	0.0	1.830468e+02	-3.787755e+01	0.0	1.789636e+02	-3.623117e+01	0.0	1.754822e+02	-3.442338e+01	0.0	1.728411e+02	-3.248495e+01	0.0	1.705556e+02	-3.155334e+01	0.0	1.684946e+02	-3.043300e+01	0.0	1.667555e+02	-2.963767e+01	0.0	1.646604e+02	-2.925971e+01	0.0	1.626941e+02	-2.887952e+01	0.0	1.607456e+02	-2.865611e+01	0.0	1.584526e+02	-2.862565e+01	0.0	1.560254e+02	-2.844887e+01	0.0	1.535535e+02	-2.834921e+01	0.0	1.509793e+02	-2.823795e+01	0.0	1.483391e+02	-2.799057e+01	0.0	1.455351e+02	-2.776011e+01	0.0	1.424213e+02	-2.743470e+01	0.0	1.392290e+02	-2.709115e+01	0.0	1.353490e+02	-2.668183e+01	0.0	1.315073e+02	-2.613547e+01	0.0	1.229683e+02	-2.763073e+01	0.0	1.478125e+02	4.452109e-01	0.0	2.216395e+02	-1.065983e+01	0.0	2.164775e+02	-7.555010e+00	0.0	2.137362e+02	-4.840597e+00	0.0	2.135663e+02	-3.597579e+00	0.0	2.112604e+02	-1.689117e+00	0.0	2.101800e+02	-2.702917e-01	0.0	2.084469e+02	1.275556e+00	0.0	2.069274e+02	2.525164e+00	0.0	2.051026e+02	4.134720e+00	0.0	2.033681e+02	5.446982e+00	0.0	2.015687e+02	6.857729e+00	0.0	1.992980e+02	8.632245e+00	0.0	1.961305e+02	1.030071e+01	0.0	1.933134e+02	1.414172e+01	0.0	1.904238e+02	1.617586e+01	0.0	1.859801e+02	2.251399e+01	0.0	1.850657e+02	2.970883e+01	0.0	1.846845e+02	3.451967e+01	0.0	1.838335e+02	4.542840e+01	0.0	1.879654e+02	5.249814e+01	0.0	1.906927e+02	6.363337e+01	0.0	1.997314e+02	7.859543e+01	0.0	2.172155e+02	8.538562e+01	0.0	2.309486e+02	9.019402e+01	0.0	2.487351e+02	9.372292e+01	0.0	2.700975e+02	8.361158e+01	0.0	2.823682e+02	7.457632e+01	0.0	3.008731e+02	5.075289e+01	0.0	3.077331e+02	2.172193e+01	0.0	3.030122e+02	6.630352e+00	0.0	3.020717e+02	-1.466850e+01	0.0	2.909090e+02	-2.384004e+01	0.0	2.796440e+02	-2.854282e+01	0.0	2.679087e+02	-3.284970e+01	0.0	2.552854e+02	-2.809992e+01	0.0	2.465012e+02	-2.188000e+01	0.0	2.385031e+02	-1.890444e+01	0.0	2.306808e+02	-8.585668e+00	0.0	2.282918e+02	9.302428e-01	0.0	2.271023e+02	4.584853e+00	0.0	2.252296e+02	1.216062e+01	0.0	2.267320e+02	1.592757e+01	0.0	2.259848e+02	2.115261e+01	0.0	2.272375e+02	2.652413e+01	0.0	2.304258e+02	2.834304e+01	0.0	2.317232e+02	3.213153e+01	0.0	2.340741e+02	3.401611e+01	0.0	2.351402e+02	3.710031e+01	0.0	2.373619e+02	4.041086e+01	0.0	2.405559e+02	4.228053e+01	0.0	2.418743e+02	4.566903e+01	0.0	2.430247e+02	4.730006e+01	0.0	2.437525e+02	5.010386e+01	0.0	2.474078e+02	5.362890e+01	0.0	2.529478e+02	5.493362e+01	0.0	2.511562e+02	5.407603e+01	0.0	2.565615e+02	5.444293e+01	0.0	2.738296e+02	5.265337e+01	0.0	2.782124e+02	4.784493e+01	0.0	2.812291e+02	4.182992e+01	0.0	2.941707e+02	2.956088e+01	0.0	3.012080e+02	2.102861e+01	0.0	3.183244e+02	1.476114e+00	0.0	3.299723e+02	-2.050558e+01	0.0	3.289005e+02	-2.863343e+01	0.0	3.328408e+02	-4.640808e+01	0.0	3.293421e+02	-5.605043e+01	0.0	3.253690e+02	-6.193085e+01	0.0	3.210416e+02	-6.953347e+01	0.0	3.140569e+02	-6.903055e+01	0.0	3.093957e+02	-6.771736e+01	0.0	3.053803e+02	-6.663723e+01	0.0	3.020849e+02	-6.398245e+01	0.0	3.001329e+02	-6.044419e+01	0.0	2.990585e+02	-5.914508e+01	0.0	2.975844e+02	-5.780952e+01	0.0	2.966892e+02	-5.654717e+01	0.0	2.960910e+02	-5.700593e+01	0.0	2.948854e+02	-5.804398e+01	0.0	2.935003e+02	-5.838623e+01	0.0	2.921609e+02	-6.103071e+01	0.0	2.893602e+02	-6.363826e+01	0.0	2.864372e+02	-6.453440e+01	0.0	2.836092e+02	-6.726009e+01	0.0	2.801436e+02	-6.832357e+01	0.0	2.767414e+02	-7.070478e+01	0.0	2.722891e+02	-7.283131e+01	0.0	2.676917e+02	-7.429186e+01	0.0	2.630974e+02	-7.686446e+01	0.0	2.574486e+02	-8.065753e+01	0.0	2.503494e+02	-8.504721e+01	0.0	2.394394e+02	-9.314011e+01	0.0	2.232822e+02	-1.001181e+02	0.0	2.000441e+02	-1.056546e+02	0.0	1.667121e+02	-1.063798e+02	0.0	1.261391e+02	-9.137879e+01	0.0	8.172865e+01	-6.560386e+01	0.0	1.085769e+00	-4.162046e+00	0.0	
SCALARS Energy double 1
LOOKUP_TABLE default
3.449396e+05	2.752088e+05	2.801156e+05	2.609990e+05	2.520036e+05	2.420683e+05	2.358333e+05	2.276592e+05	2.215116e+05	2.132925e+05	2.077394e+05	2.000847e+05	1.942129e+05	1.868664e+05	1.858984e+05	2.097757e+05	2.510508e+05	2.678589e+05	2.732968e+05	2.800730e+05	2.868213e+05	2.929641e+05	2.959328e+05	3.015197e+05	3.030329e+05	3.036218e+05	3.061994e+05	3.022329e+05	3.029069e+05	3.004100e+05	2.919965e+05	2.880360e+05	2.814496e+05	2.714128e+05	2.618838e+05	2.547806e+05	2.384828e+05	2.252219e+05	2.195833e+05	2.073781e+05	2.018176e+05	1.921222e+05	1.827036e+05	1.797306e+05	1.728840e+05	1.696410e+05	1.636148e+05	1.574105e+05	1.541304e+05	1.478031e+05	1.449899e+05	1.383487e+05	1.325107e+05	1.281673e+05	1.243883e+05	1.234435e+05	1.482036e+05	2.221172e+05	2.588137e+05	2.583693e+05	2.603569e+05	2.628687e+05	2.644142e+05	2.629473e+05	2.639876e+05	2.624430e+05	2.602181e+05	2.588536e+05	2.559256e+05	2.530780e+05	2.521197e+05	2.492087e+05	2.491677e+05	2.517235e+05	2.523687e+05	2.554142e+05	2.575562e+05	2.597076e+05	2.618617e+05	2.630500e+05	2.641471e+05	2.650630e+05	2.655686e+05	2.663417e+05	2.668557e+05	2.672549e+05	2.678289e+05	2.683165e+05	2.687976e+05	2.693490e+05	2.698885e+05	2.704633e+05	2.710740e+05	2.716617e+05	2.722574e+05	2.729840e+05	2.734760e+05	2.750951e+05	2.721387e+05	2.768049e+05	3.011576e+05	2.967864e+05	2.970066e+05	2.980252e+05	2.980981e+05	2.987677e+05	2.990196e+05	2.995969e+05	2.999701e+05	3.004578e+05	3.011591e+05	3.015900e+05	3.027838e+05	3.027218e+05	3.043882e+05	3.044918e+05	3.038712e+05	3.052322e+05	3.025996e+05	3.027758e+05	3.007112e+05	2.941951e+05	2.890389e+05	2.811150e+05	2.681249e+05	2.563480e+05	2.311699e+05	2.225201e+05	2.274747e+05	2.328203e+05	2.482251e+05	2.596858e+05	2.688769e+05	2.790839e+05	2.854167e+05	2.886147e+05	2.941579e+05	2.962154e+05	2.955483e+05	2.972092e+05	2.957513e+05	2.962666e+05	2.954940e+05	2.934136e+05	2.931772e+05	2.912117e+05	2.906364e+05	2.892723e+05	2.873289e+05	2.864034e+05	2.838719e+05	2.821848e+05	2.797589e+05	2.755297e+05	2.742866e+05	2.695884e+05	2.404084e+05	1.853269e+05	1.622968e+05	1.605924e+05	1.713893e+05	1.796236e+05	1.972681e+05	2.168392e+05	2.246099e+05	2.395153e+05	2.510499e+05	2.600796e+05	2.712998e+05	2.784649e+05	2.836531e+05	2.883235e+05	2.916896e+05	2.931426e+05	2.947883e+05	2.959602e+05	2.962471e+05	2.968377e+05	2.978901e+05	2.979399e+05	2.989267e+05	3.007757e+05	3.017287e+05	3.038754e+05	3.051106e+05	3.069005e+05	3.089377e+05	3.106240e+05	3.122817e+05	3.142398e+05	3.157073e+05	3.191082e+05	3.233795e+05	3.284076e+05	3.375026e+05	3.452078e+05	3.485245e+05	3.684230e+05	
SCALARS Pressure double 1
LOOKUP_TABLE default
1.337580e+05	1.004634e+05	9.996484e+04	8.975653e+04	8.404964e+04	7.879801e+04	7.515348e+04	7.101477e+04	6.769415e+04	6.384282e+04	6.093959e+04	5.741733e+04	5.444591e+04	5.134634e+04	5.186842e+04	6.395035e+04	8.437745e+04	9.261430e+04	9.567633e+04	9.938006e+04	1.032191e+05	1.064411e+05	1.084742e+05	1.113124e+05	1.121980e+05	1.127543e+05	1.136069e+05	1.117606e+05	1.118230e+05	1.098467e+05	1.052818e+05	1.027150e+05	9.867920e+04	9.315301e+04	8.814303e+04	8.367438e+04	7.546637e+04	6.922372e+04	6.610074e+04	6.069394e+04	5.788922e+04	5.350761e+04	4.962391e+04	4.810941e+04	4.542587e+04	4.396022e+04	4.156287e+04	3.922055e+04	3.783030e+04	3.556637e+04	3.439590e+04	3.205712e+04	2.994078e+04	2.864176e+04	2.684311e+04	2.835984e+04	4.186843e+04	7.875234e+04	9.627081e+04	9.663758e+04	9.810609e+04	9.960155e+04	1.002438e+05	9.967050e+04	1.000338e+05	9.908336e+04	9.784428e+04	9.683161e+04	9.508693e+04	9.349189e+04	9.261832e+04	9.111645e+04	9.125266e+04	9.253181e+04	9.316936e+04	9.491090e+04	9.624103e+04	9.759186e+04	9.886308e+04	9.963810e+04	1.003312e+05	1.008933e+05	1.012473e+05	1.016999e+05	1.020203e+05	1.023064e+05	1.026566e+05	1.029665e+05	1.032880e+05	1.036448e+05	1.039956e+05	1.043634e+05	1.047478e+05	1.051272e+05	1.055217e+05	1.059699e+05	1.063479e+05	1.071825e+05	1.063068e+05	1.072677e+05	1.132485e+05	1.117407e+05	1.120173e+05	1.124612e+05	1.126408e+05	1.129926e+05	1.132074e+05	1.135446e+05	1.138123e+05	1.141212e+05	1.145217e+05	1.148334e+05	1.155141e+05	1.156357e+05	1.164860e+05	1.167376e+05	1.164735e+05	1.170166e+05	1.158363e+05	1.155823e+05	1.143726e+05	1.107703e+05	1.072693e+05	1.027214e+05	9.545010e+04	8.846106e+04	7.558435e+04	6.965982e+04	7.167185e+04	7.500808e+04	8.249739e+04	8.903968e+04	9.434133e+04	9.996274e+04	1.038784e+05	1.060229e+05	1.090428e+05	1.105312e+05	1.104241e+05	1.112127e+05	1.107000e+05	1.108005e+05	1.104926e+05	1.094770e+05	1.091359e+05	1.081638e+05	1.077266e+05	1.070263e+05	1.059813e+05	1.053141e+05	1.040652e+05	1.032162e+05	1.020553e+05	9.984512e+04	9.881040e+04	9.689961e+04	8.325849e+04	5.443915e+04	4.113178e+04	3.973354e+04	4.390241e+04	4.747278e+04	5.446451e+04	6.302039e+04	6.716064e+04	7.392767e+04	7.994550e+04	8.471257e+04	9.040582e+04	9.455473e+04	9.747988e+04	1.000548e+05	1.019684e+05	1.028853e+05	1.037561e+05	1.044479e+05	1.046832e+05	1.049962e+05	1.055615e+05	1.057045e+05	1.062194e+05	1.072472e+05	1.079124e+05	1.090572e+05	1.098779e+05	1.109031e+05	1.121181e+05	1.131921e+05	1.142166e+05	1.154093e+05	1.164606e+05	1.184841e+05	1.211730e+05	1.245013e+05	1.299205e+05	1.350155e+05	1.380391e+05	1.473670e+05	
SCALARS Temperature double 1
LOOKUP_TABLE default
2.955281e+02	2.828388e+02	2.781712e+02	2.706461e+02	2.645258e+02	2.597356e+02	2.555921e+02	2.514731e+02	2.475623e+02	2.436467e+02	2.398867e+02	2.358319e+02	2.315803e+02	2.279737e+02	2.307236e+02	2.470968e+02	2.660523e+02	2.717349e+02	2.742522e+02	2.770011e+02	2.798923e+02	2.818616e+02	2.836925e+02	2.851743e+02	2.857826e+02	2.864097e+02	2.862174e+02	2.855193e+02	2.851714e+02	2.831858e+02	2.802844e+02	2.780187e+02	2.745586e+02	2.702472e+02	2.663342e+02	2.614760e+02	2.542345e+02	2.486509e+02	2.447150e+02	2.394606e+02	2.357516e+02	2.303959e+02	2.259075e+02	2.233265e+02	2.200748e+02	2.176689e+02	2.142475e+02	2.109608e+02	2.084335e+02	2.051411e+02	2.027957e+02	1.989667e+02	1.949304e+02	1.931830e+02	1.877289e+02	1.975890e+02	2.329747e+02	2.768379e+02	2.867498e+02	2.879053e+02	2.894623e+02	2.906257e+02	2.907448e+02	2.907086e+02	2.906431e+02	2.898685e+02	2.890128e+02	2.879331e+02	2.865092e+02	2.853143e+02	2.841502e+02	2.831672e+02	2.835113e+02	2.842829e+02	2.851790e+02	2.865399e+02	2.877041e+02	2.888827e+02	2.898667e+02	2.905578e+02	2.911419e+02	2.915904e+02	2.919279e+02	2.922563e+02	2.925138e+02	2.927904e+02	2.930597e+02	2.933128e+02	2.935942e+02	2.938909e+02	2.941834e+02	2.944816e+02	2.947835e+02	2.950918e+02	2.954229e+02	2.957580e+02	2.961331e+02	2.965414e+02	2.970968e+02	2.953901e+02	2.890324e+02	2.892883e+02	2.896522e+02	2.897639e+02	2.900483e+02	2.902324e+02	2.904549e+02	2.906751e+02	2.909093e+02	2.911383e+02	2.913856e+02	2.916576e+02	2.920718e+02	2.923377e+02	2.927262e+02	2.931112e+02	2.930635e+02	2.931024e+02	2.927898e+02	2.922022e+02	2.914248e+02	2.892981e+02	2.862746e+02	2.830447e+02	2.776660e+02	2.713400e+02	2.606043e+02	2.521577e+02	2.533990e+02	2.577150e+02	2.638255e+02	2.700475e+02	2.747101e+02	2.789239e+02	2.822192e+02	2.841460e+02	2.860329e+02	2.874095e+02	2.876786e+02	2.879955e+02	2.880575e+02	2.878830e+02	2.878470e+02	2.873930e+02	2.869086e+02	2.864447e+02	2.860120e+02	2.856329e+02	2.849931e+02	2.843504e+02	2.837164e+02	2.832535e+02	2.826987e+02	2.813209e+02	2.801052e+02	2.796421e+02	2.720637e+02	2.401397e+02	2.138483e+02	2.097782e+02	2.156758e+02	2.210929e+02	2.288308e+02	2.381668e+02	2.434522e+02	2.494530e+02	2.554538e+02	2.598548e+02	2.643513e+02	2.680969e+02	2.705072e+02	2.724729e+02	2.739598e+02	2.747692e+02	2.753451e+02	2.758907e+02	2.761521e+02	2.763550e+02	2.767289e+02	2.769714e+02	2.772890e+02	2.779980e+02	2.786174e+02	2.793286e+02	2.800365e+02	2.807449e+02	2.816283e+02	2.824743e+02	2.832384e+02	2.840975e+02	2.850144e+02	2.863721e+02	2.882857e+02	2.907390e+02	2.939732e+02	2.973587e+02	3.000564e+02	3.021814e+02	
SCALARS Mach double 1
LOOKUP_TABLE default
3.355874e-01	5.848014e-01	6.569853e-01	7.633156e-01	8.436916e-01	9.039677e-01	9.547047e-01	1.004135e+00	1.050335e+00	1.096032e+00	1.139511e+00	1.186077e+00	1.234666e+00	1.275782e+00	1.244438e+00	1.055794e+00	8.240411e-01	7.485203e-01	7.136144e-01	6.742199e-01	6.310542e-01	6.004274e-01	5.708908e-01	5.461162e-01	5.356909e-01	5.247765e-01	5.281417e-01	5.402224e-01	5.461648e-01	5.791777e-01	6.250420e-01	6.592485e-01	7.092931e-01	7.686946e-01	8.203864e-01	8.822909e-01	9.710966e-01	1.037536e+00	1.083611e+00	1.144418e+00	1.186997e+00	1.248175e+00	1.299321e+00	1.328733e+00	1.365832e+00	1.393335e+00	1.432561e+00	1.470408e+00	1.499647e+00	1.537948e+00	1.565397e+00	1.610543e+00	1.658640e+00	1.679642e+00	1.745975e+00	1.626897e+00	1.218750e+00	6.766015e-01	5.187798e-01	4.979820e-01	4.687825e-01	4.459383e-01	4.435451e-01	4.442738e-01	4.455893e-01	4.609144e-01	4.773625e-01	4.974714e-01	5.230275e-01	5.437317e-01	5.633279e-01	5.794795e-01	5.738653e-01	5.611207e-01	5.460371e-01	5.224864e-01	5.016517e-01	4.798224e-01	4.609486e-01	4.472998e-01	4.354810e-01	4.262166e-01	4.191302e-01	4.121347e-01	4.065752e-01	4.005308e-01	3.945663e-01	3.888867e-01	3.824879e-01	3.756328e-01	3.687677e-01	3.616471e-01	3.543076e-01	3.466669e-01	3.382888e-01	3.296140e-01	3.196460e-01	3.084615e-01	2.926159e-01	3.391275e-01	4.769914e-01	4.721196e-01	4.651184e-01	4.629503e-01	4.573956e-01	4.537696e-01	4.493543e-01	4.449475e-01	4.402198e-01	4.355547e-01	4.304686e-01	4.248145e-01	4.160773e-01	4.103856e-01	4.019395e-01	3.934157e-01	3.944806e-01	3.936138e-01	4.005440e-01	4.132948e-01	4.296571e-01	4.719316e-01	5.271428e-01	5.814693e-01	6.644641e-01	7.539062e-01	8.931769e-01	9.959796e-01	9.811336e-01	9.288522e-01	8.526298e-01	7.713791e-01	7.071510e-01	6.457328e-01	5.947440e-01	5.633975e-01	5.313563e-01	5.069891e-01	5.021169e-01	4.963284e-01	4.951884e-01	4.983894e-01	4.990477e-01	5.072879e-01	5.159612e-01	5.241604e-01	5.317181e-01	5.382709e-01	5.491919e-01	5.599944e-01	5.704976e-01	5.780759e-01	5.870601e-01	6.089461e-01	6.277940e-01	6.348689e-01	7.440179e-01	1.136595e+00	1.437148e+00	1.484074e+00	1.416167e+00	1.354209e+00	1.266016e+00	1.159297e+00	1.098290e+00	1.028077e+00	9.563798e-01	9.024901e-01	8.459236e-01	7.973286e-01	7.651917e-01	7.383911e-01	7.177229e-01	7.063146e-01	6.981253e-01	6.903093e-01	6.865432e-01	6.836118e-01	6.781878e-01	6.746535e-01	6.700079e-01	6.595557e-01	6.503315e-01	6.396265e-01	6.288470e-01	6.179282e-01	6.041135e-01	5.906650e-01	5.783221e-01	5.642035e-01	5.488302e-01	5.254348e-01	4.909780e-01	4.436607e-01	3.737135e-01	2.848612e-01	1.883169e-01	7.265376e-03	
SCALARS Pressure_Coefficient double 1
LOOKUP_TABLE default