# vtk DataFile Version 3.0
vtk output
ASCII
DATASET UNSTRUCTURED_GRID
POINTS 20183 double
5.000000e+01	0.000000e+00	0.0	4.958950e+01	6.393858e+00	0.0	4.836474e+01	1.268273e+01	0.0	4.634584e+01	1.876335e+01	0.0	4.356594e+01	2.453588e+01	0.0	4.007068e+01	2.990553e+01	0.0	3.591747e+01	3.478413e+01	0.0	3.117449e+01	3.909157e+01	0.0	2.591963e+01	4.275714e+01	0.0	2.023917e+01	4.572063e+01	0.0	1.422638e+01	4.793339e+01	0.0	7.979995e+00	4.935909e+01	0.0	1.602579e+00	4.997431e+01	0.0	-4.801151e+00	4.976896e+01	0.0	-1.112605e+01	4.874640e+01	0.0	-1.726825e+01	4.692342e+01	0.0	-2.312691e+01	4.432997e+01	0.0	-2.860583e+01	4.100861e+01	0.0	-3.361504e+01	3.701390e+01	0.0	-3.807230e+01	3.241142e+01	0.0	-4.190441e+01	2.727675e+01	0.0	-4.504844e+01	2.169419e+01	0.0	-4.745279e+01	1.575541e+01	0.0	-4.907796e+01	9.557931e+00	0.0	-4.989727e+01	3.203511e+00	0.0	-4.989727e+01	-3.203511e+00	0.0	-4.907796e+01	-9.557931e+00	0.0	-4.745279e+01	-1.575541e+01	0.0	-4.504844e+01	-2.169419e+01	0.0	-4.190441e+01	-2.727675e+01	0.0	-3.807230e+01	-3.241142e+01	0.0	-3.361504e+01	-3.701390e+01	0.0	-2.860583e+01	-4.100861e+01	0.0	-2.312691e+01	-4.432997e+01	0.0	-1.726825e+01	-4.692342e+01	0.0	-1.112605e+01	-4.874640e+01	0.0	-4.801151e+00	-4.976896e+01	0.0	1.602579e+00	-4.997431e+01	0.0	7.979995e+00	-4.935909e+01	0.0	1.422638e+01	-4.793339e+01	0.0	2.023917e+01	-4.572063e+01	0.0	2.591963e+01	-4.275714e+01	0.0	3.117449e+01	-3.909157e+01	0.0	3.591747e+01	-3.478413e+01	0.0	4.007068e+01	-2.990553e+01	0.0	4.356594e+01	-2.453588e+01	0.0	4.634584e+01	-1.876335e+01	0.0	4.836474e+01	-1.268273e+01	0.0	4.958950e+01	-6.393858e+00	0.0	0.000000e+00	0.000000e+00	0.0	3.087845e-03	3.932583e-03	0.0	6.141592e-03	7.821740e-03	0.0	1.010236e-02	1.067376e-02	0.0	1.406859e-02	1.344375e-02	0.0	1.831247e-02	1.562194e-02	0.0	2.262452e-02	1.757820e-02	0.0	2.694349e-02	1.938123e-02	0.0	3.133782e-02	2.085999e-02	0.0	3.568684e-02	2.232350e-02	0.0	4.005124e-02	2.357275e-02	0.0	4.439780e-02	2.472177e-02	0.0	4.870082e-02	2.585928e-02	0.0	5.301667e-02	2.674803e-02	0.0	5.729236e-02	2.761856e-02	0.0	6.153103e-02	2.845472e-02	0.0	6.576258e-02	2.909243e-02	0.0	6.995377e-02	2.972405e-02	0.0	7.410851e-02	3.032637e-02	0.0	7.823822e-02	3.082065e-02	0.0	8.232967e-02	3.131035e-02	0.0	8.638238e-02	3.180464e-02	0.0	9.038629e-02	3.238499e-02	0.0	9.435417e-02	3.296013e-02	0.0	9.828670e-02	3.353014e-02	0.0	1.021607e-01	3.422914e-02	0.0	1.059806e-01	3.503569e-02	0.0	1.097675e-01	3.583526e-02	0.0	1.135219e-01	3.662799e-02	0.0	1.172351e-01	3.745183e-02	0.0	1.208638e-01	3.848418e-02	0.0	1.244624e-01	3.950794e-02	0.0	1.280312e-01	4.052327e-02	0.0	1.315710e-01	4.153032e-02	0.0	1.350822e-01	4.252923e-02	0.0	1.385562e-01	4.355117e-02	0.0	1.419932e-01	4.459705e-02	0.0	1.454033e-01	4.563473e-02	0.0	1.487870e-01	4.666436e-02	0.0	1.521446e-01	4.768608e-02	0.0	1.554767e-01	4.870003e-02	0.0	1.587837e-01	4.970634e-02	0.0	1.620817e-01	5.065082e-02	0.0	1.653712e-01	5.153257e-02	0.0	1.686367e-01	5.240789e-02	0.0	1.718786e-01	5.327687e-02	0.0	1.750972e-01	5.413964e-02	0.0	1.782931e-01	5.499629e-02	0.0	1.814666e-01	5.584694e-02	0.0	1.846180e-01	5.669168e-02	0.0	1.877648e-01	5.745614e-02	0.0	1.909269e-01	5.805496e-02	0.0	1.940676e-01	5.864975e-02	0.0	1.971875e-01	5.924059e-02	0.0	2.002868e-01	5.982753e-02	0.0	2.033659e-01	6.041064e-02	0.0	2.064251e-01	6.099000e-02	0.0	2.094648e-01	6.156565e-02	0.0	2.124854e-01	6.213767e-02	0.0	2.154925e-01	6.266680e-02	0.0	2.185155e-01	6.294901e-02	0.0	2.215200e-01	6.322949e-02	0.0	2.245063e-01	6.350828e-02	0.0	2.274747e-01	6.378539e-02	0.0	2.304256e-01	6.406087e-02	0.0	2.333592e-01	6.433473e-02	0.0	2.362758e-01	6.460701e-02	0.0	2.391758e-01	6.487773e-02	0.0	2.420593e-01	6.514692e-02	0.0	2.449268e-01	6.541132e-02	0.0	2.477906e-01	6.544175e-02	0.0	2.506386e-01	6.547201e-02	0.0	2.534713e-01	6.550211e-02	0.0	2.562888e-01	6.553205e-02	0.0	2.590915e-01	6.556183e-02	0.0	2.618795e-01	6.559145e-02	0.0	2.646531e-01	6.562092e-02	0.0	2.674125e-01	6.565024e-02	0.0	2.701581e-01	6.567942e-02	0.0	2.728899e-01	6.570845e-02	0.0	2.756083e-01	6.573733e-02	0.0	2.783096e-01	6.560594e-02	0.0	2.809973e-01	6.544675e-02	0.0	2.836722e-01	6.528832e-02	0.0	2.863346e-01	6.513064e-02	0.0	2.889846e-01	6.497368e-02	0.0	2.916226e-01	6.481744e-02	0.0	2.942486e-01	6.466190e-02	0.0	2.968630e-01	6.450705e-02	0.0	2.994659e-01	6.435289e-02	0.0	3.020575e-01	6.419940e-02	0.0	3.046379e-01	6.404656e-02	0.0	3.072075e-01	6.389436e-02	0.0	3.097594e-01	6.366253e-02	0.0	3.122956e-01	6.337166e-02	0.0	3.148215e-01	6.308198e-02	0.0	3.173374e-01	6.279346e-02	0.0	3.198432e-01	6.250607e-02	0.0	3.223394e-01	6.221980e-02	0.0	3.248260e-01	6.193463e-02	0.0	3.273031e-01	6.165054e-02	0.0	3.297711e-01	6.136750e-02	0.0	3.322300e-01	6.108551e-02	0.0	3.346800e-01	6.080453e-02	0.0	3.371212e-01	6.052455e-02	0.0	3.395540e-01	6.024556e-02	0.0	3.419771e-01	5.995803e-02	0.0	3.443858e-01	5.962276e-02	0.0	3.467864e-01	5.928861e-02	0.0	3.491791e-01	5.895557e-02	0.0	3.515641e-01	5.862360e-02	0.0	3.539414e-01	5.829270e-02	0.0	3.563113e-01	5.796283e-02	0.0	3.586739e-01	5.763397e-02	0.0	3.610294e-01	5.730612e-02	0.0	3.633778e-01	5.697923e-02	0.0	3.657194e-01	5.665331e-02	0.0	3.680542e-01	5.632832e-02	0.0	3.703825e-01	5.600425e-02	0.0	3.727042e-01	5.568108e-02	0.0	3.750197e-01	5.535879e-02	0.0	3.773311e-01	5.505273e-02	0.0	3.796373e-01	5.475364e-02	0.0	3.819375e-01	5.445531e-02	0.0	3.842319e-01	5.415773e-02	0.0	3.865207e-01	5.386089e-02	0.0	3.888040e-01	5.356477e-02	0.0	3.910819e-01	5.326934e-02	0.0	3.933545e-01	5.297459e-02	0.0	3.956220e-01	5.268052e-02	0.0	3.978845e-01	5.238709e-02	0.0	4.001420e-01	5.209430e-02	0.0	4.023948e-01	5.180212e-02	0.0	4.046430e-01	5.151055e-02	0.0	4.068866e-01	5.121956e-02	0.0	4.091259e-01	5.092915e-02	0.0	4.113650e-01	5.067729e-02	0.0	4.136057e-01	5.047814e-02	0.0	4.158422e-01	5.027934e-02	0.0	4.180749e-01	5.008090e-02	0.0	4.203037e-01	4.988280e-02	0.0	4.225288e-01	4.968502e-02	0.0	4.247503e-01	4.948757e-02	0.0	4.269683e-01	4.929043e-02	0.0	4.291830e-01	4.909358e-02	0.0	4.313944e-01	4.889703e-02	0.0	4.336027e-01	4.870075e-02	0.0	4.358079e-01	4.850474e-02	0.0	4.380102e-01	4.830900e-02	0.0	4.402097e-01	4.811350e-02	0.0	4.424065e-01	4.791824e-02	0.0	4.446008e-01	4.772321e-02	0.0	4.467963e-01	4.758782e-02	0.0	4.489927e-01	4.750439e-02	0.0	4.511869e-01	4.742105e-02	0.0	4.533789e-01	4.733780e-02	0.0	4.555689e-01	4.725462e-02	0.0	4.577569e-01	4.717152e-02	0.0	4.599431e-01	4.708848e-02	0.0	4.621275e-01	4.700552e-02	0.0	4.643103e-01	4.692261e-02	0.0	4.664916e-01	4.683976e-02	0.0	4.686715e-01	4.675696e-02	0.0	4.708501e-01	4.667422e-02	0.0	4.730275e-01	4.659152e-02	0.0	4.752038e-01	4.650886e-02	0.0	4.773791e-01	4.642624e-02	0.0	4.795536e-01	4.634365e-02	0.0	4.817277e-01	4.628711e-02	0.0	4.839022e-01	4.629559e-02	0.0	4.860761e-01	4.630406e-02	0.0	4.882496e-01	4.631254e-02	0.0	4.904227e-01	4.632102e-02	0.0	4.925956e-01	4.632949e-02	0.0	4.947683e-01	4.633797e-02	0.0	4.969409e-01	4.634644e-02	0.0	4.991136e-01	4.635491e-02	0.0	5.012865e-01	4.636339e-02	0.0	5.034596e-01	4.637186e-02	0.0	5.056331e-01	4.638034e-02	0.0	5.078070e-01	4.638882e-02	0.0	5.099816e-01	4.639730e-02	0.0	5.121568e-01	4.640578e-02	0.0	5.143327e-01	4.641427e-02	0.0	5.165096e-01	4.642276e-02	0.0	5.186861e-01	4.649681e-02	0.0	5.208636e-01	4.657672e-02	0.0	5.230423e-01	4.665667e-02	0.0	5.252223e-01	4.673667e-02	0.0	5.274037e-01	4.681672e-02	0.0	5.295867e-01	4.689683e-02	0.0	5.317712e-01	4.697700e-02	0.0	5.339575e-01	4.705723e-02	0.0	5.361456e-01	4.713753e-02	0.0	5.383357e-01	4.721790e-02	0.0	5.405278e-01	4.729835e-02	0.0	5.427221e-01	4.737887e-02	0.0	5.449186e-01	4.745948e-02	0.0	5.471175e-01	4.754018e-02	0.0	5.493189e-01	4.762096e-02	0.0	5.515229e-01	4.770185e-02	0.0	5.537281e-01	4.781577e-02	0.0	5.559353e-01	4.794387e-02	0.0	5.581456e-01	4.807215e-02	0.0	5.603588e-01	4.820060e-02	0.0	5.625752e-01	4.832924e-02	0.0	5.647948e-01	4.845806e-02	0.0	5.670179e-01	4.858708e-02	0.0	5.692444e-01	4.871630e-02	0.0	5.714745e-01	4.884573e-02	0.0	5.737084e-01	4.897538e-02	0.0	5.759460e-01	4.910525e-02	0.0	5.781877e-01	4.923535e-02	0.0	5.804334e-01	4.936569e-02	0.0	5.826833e-01	4.949627e-02	0.0	5.849375e-01	4.962709e-02	0.0	5.871961e-01	4.975818e-02	0.0	5.894591e-01	4.989269e-02	0.0	5.917268e-01	5.002780e-02	0.0	5.939992e-01	5.016320e-02	0.0	5.962766e-01	5.029889e-02	0.0	5.985590e-01	5.043489e-02	0.0	6.008466e-01	5.057119e-02	0.0	6.031395e-01	5.070780e-02	0.0	6.054378e-01	5.084474e-02	0.0	6.077417e-01	5.098201e-02	0.0	6.100513e-01	5.111962e-02	0.0	6.123667e-01	5.125758e-02	0.0	6.146880e-01	5.139589e-02	0.0	6.170154e-01	5.153457e-02	0.0	6.193491e-01	5.167361e-02	0.0	6.216891e-01	5.181304e-02	0.0	6.240375e-01	5.191473e-02	0.0	6.263931e-01	5.200661e-02	0.0	6.287554e-01	5.209876e-02	0.0	6.311247e-01	5.219117e-02	0.0	6.335011e-01	5.228386e-02	0.0	6.358846e-01	5.237684e-02	0.0	6.382756e-01	5.247010e-02	0.0	6.406740e-01	5.256365e-02	0.0	6.430801e-01	5.265751e-02	0.0	6.454941e-01	5.275167e-02	0.0	6.479160e-01	5.284614e-02	0.0	6.503461e-01	5.294092e-02	0.0	6.527844e-01	5.303603e-02	0.0	6.552312e-01	5.313147e-02	0.0	6.576877e-01	5.316907e-02	0.0	6.601537e-01	5.316008e-02	0.0	6.626287e-01	5.315107e-02	0.0	6.651128e-01	5.314201e-02	0.0	6.676062e-01	5.313293e-02	0.0	6.701091e-01	5.312381e-02	0.0	6.726216e-01	5.311465e-02	0.0	6.751438e-01	5.310546e-02	0.0	6.776761e-01	5.309624e-02	0.0	6.802186e-01	5.308697e-02	0.0	6.827714e-01	5.307767e-02	0.0	6.853347e-01	5.306833e-02	0.0	6.879088e-01	5.305895e-02	0.0	6.904926e-01	5.300696e-02	0.0	6.930851e-01	5.286914e-02	0.0	6.956888e-01	5.273073e-02	0.0	6.983041e-01	5.259170e-02	0.0	7.009310e-01	5.245206e-02	0.0	7.035699e-01	5.231177e-02	0.0	7.062208e-01	5.217085e-02	0.0	7.088841e-01	5.202927e-02	0.0	7.115599e-01	5.188702e-02	0.0	7.142485e-01	5.174410e-02	0.0	7.169500e-01	5.160049e-02	0.0	7.196648e-01	5.145617e-02	0.0	7.223902e-01	5.127645e-02	0.0	7.251219e-01	5.099955e-02	0.0	7.278675e-01	5.072125e-02	0.0	7.306271e-01	5.044152e-02	0.0	7.334010e-01	5.016034e-02	0.0	7.361895e-01	4.987768e-02	0.0	7.389929e-01	4.959352e-02	0.0	7.418112e-01	4.930784e-02	0.0	7.446450e-01	4.902060e
[...]
POINT_DATA 20183

SCALARS Density double 1
LOOKUP_TABLE default
1.290491e+00	1.290814e+00	1.291992e+00	1.292152e+00	1.291966e+00	1.291901e+00	1.291820e+00	1.291714e+00	1.291617e+00	1.291517e+00	1.291437e+00	1.291406e+00	1.291428e+00	1.291529e+00	1.291695e+00	1.291855e+00	1.291997e+00	1.292103e+00	1.292185e+00	1.292243e+00	1.292286e+00	1.292317e+00	1.292341e+00	1.292361e+00	1.292378e+00	1.292397e+00	1.292416e+00	1.292441e+00	1.292470e+00	1.292508e+00	1.292558e+00	1.292624e+00	1.292705e+00	1.292804e+00	1.292925e+00	1.293054e+00	1.293188e+00	1.293283e+00	1.293293e+00	1.293247e+00	1.293155e+00	1.293035e+00	1.292895e+00	1.292767e+00	1.292652e+00	1.292534e+00	1.292478e+00	1.292444e+00	1.291793e+00	1.549123e+00	1.240690e+00	1.224432e+00	1.093689e+00	1.053478e+00	9.924774e-01	9.809420e-01	9.534633e-01	9.413139e-01	9.431113e-01	9.355012e-01	9.627876e-01	9.778250e-01	1.003713e+00	1.056174e+00	1.066804e+00	1.090817e+00	1.136101e+00	1.155710e+00	1.182837e+00	1.217589e+00	1.242568e+00	1.255442e+00	1.262724e+00	1.282126e+00	1.292956e+00	1.284456e+00	1.279474e+00	1.286655e+00	1.299295e+00	1.287071e+00	1.259176e+00	1.248963e+00	1.242196e+00	1.236807e+00	1.229676e+00	1.215624e+00	1.199126e+00	1.185544e+00	1.170661e+00	1.152264e+00	1.127869e+00	1.108799e+00	1.109616e+00	1.115478e+00	1.110179e+00	1.098859e+00	1.083194e+00	1.055347e+00	1.004184e+00	9.322040e-01	8.918567e-01	8.972432e-01	9.081195e-01	9.176531e-01	9.265620e-01	9.360922e-01	9.388911e-01	9.213491e-01	8.430922e-01	7.737698e-01	7.699851e-01	7.797969e-01	7.862172e-01	7.918162e-01	7.948176e-01	7.986202e-01	8.050149e-01	8.077117e-01	7.516088e-01	6.923506e-01	6.844782e-01	6.907023e-01	6.947167e-01	6.970275e-01	6.984721e-01	6.998110e-01	7.015944e-01	7.050893e-01	7.075035e-01	6.700472e-01	6.259761e-01	6.151389e-01	6.172779e-01	6.210987e-01	6.231337e-01	6.235392e-01	6.240414e-01	6.252528e-01	6.265208e-01	6.276881e-01	6.289558e-01	6.129982e-01	5.795929e-01	5.616619e-01	5.611785e-01	5.656501e-01	5.679945e-01	5.689769e-01	5.689584e-01	5.689525e-01	5.695775e-01	5.704341e-01	5.713428e-01	5.723010e-01	5.718673e-01	5.590381e-01	5.465856e-01	5.462433e-01	5.487110e-01	5.507899e-01	5.516671e-01	5.520221e-01	5.524656e-01	5.529907e-01	5.536085e-01	5.541904e-01	5.547387e-01	5.551932e-01	5.555240e-01	5.598210e-01	5.663734e-01	5.695337e-01	5.698870e-01	5.697733e-01	5.702319e-01	5.712345e-01	5.722459e-01	5.730630e-01	5.736868e-01	5.743098e-01	5.749119e-01	5.755091e-01	5.758819e-01	5.749142e-01	5.849088e-01	6.092167e-01	6.298179e-01	6.319163e-01	6.314420e-01	6.303766e-01	6.320140e-01	6.307156e-01	6.640103e-01	8.202986e-01	1.121978e+00	1.195759e+00	1.188430e+00	1.193514e+00	1.202148e+00	1.209277e+00	1.220129e+00	1.225710e+00	1.217547e+00	1.210411e+00	1.208847e+00	1.207847e+00	1.207235e+00	1.206969e+00	1.207269e+00	1.207822e+00	1.208774e+00	1.209864e+00	1.211628e+00	1.213313e+00	1.216763e+00	1.220695e+00	1.226109e+00	1.232073e+00	1.226850e+00	1.216977e+00	1.215002e+00	1.213038e+00	1.211274e+00	1.210180e+00	1.209296e+00	1.208618e+00	1.208392e+00	1.208319e+00	1.208703e+00	1.209252e+00	1.210481e+00	1.213015e+00	1.215277e+00	1.222004e+00	1.219847e+00	1.209455e+00	1.206438e+00	1.203970e+00	1.201593e+00	1.199635e+00	1.197871e+00	1.196663e+00	1.195235e+00	1.194373e+00	1.193524e+00	1.192893e+00	1.192717e+00	1.193370e+00	1.194314e+00	1.197516e+00	1.196757e+00	1.189386e+00	1.184668e+00	1.181707e+00	1.179090e+00	1.176346e+00	1.173934e+00	1.171513e+00	1.169252e+00	1.167077e+00	1.164929e+00	1.162845e+00	1.160784e+00	1.158711e+00	1.156798e+00	1.154790e+00	1.152560e+00	1.149567e+00	1.146932e+00	1.144468e+00	1.141639e+00	1.138889e+00	1.136135e+00	1.133075e+00	1.130016e+00	1.126401e+00	1.122690e+00	1.118252e+00	1.112477e+00	1.105785e+00	1.095995e+00	1.092887e+00	1.098740e+00	1.100432e+00	1.098743e+00	1.096735e+00	1.094709e+00	1.091770e+00	1.088309e+00	1.084151e+00	1.079052e+00	1.072581e+00	1.063268e+00	1.050496e+00	1.030811e+00	1.019733e+00	1.035075e+00	1.052827e+00	1.055585e+00	1.055347e+00	1.055271e+00	1.054184e+00	1.051578e+00	1.047881e+00	1.042269e+00	1.033582e+00	1.019374e+00	9.966244e-01	9.754505e-01	9.909483e-01	1.024843e+00	1.036164e+00	1.038431e+00	1.039574e+00	1.040207e+00	1.039396e+00	1.036239e+00	1.030599e+00	1.019532e+00	1.001779e+00	9.829937e-01	9.962330e-01	1.031193e+00	1.043971e+00	1.047414e+00	1.049997e+00	1.051231e+00	1.050837e+00	1.046490e+00	1.038080e+00	1.022686e+00	1.015426e+00	1.036742e+00	1.064042e+00	1.073802e+00	1.077119e+00	1.080475e+00	1.081587e+00	1.079311e+00	1.073501e+00	1.060196e+00	1.071923e+00	1.101661e+00	1.113200e+00	1.118780e+00	1.124036e+00	1.127288e+00	1.128848e+00	1.125378e+00	1.133382e+00	1.151019e+00	1.160263e+00	1.166903e+00	1.173098e+00	1.178670e+00	1.183407e+00	1.188963e+00	1.195428e+00	1.201684e+00	1.207423e+00	1.214001e+00	1.220444e+00	1.228200e+00	1.230360e+00	1.228351e+00	1.231384e+00	1.235301e+00	1.239053e+00	1.245923e+00	1.246821e+00	1.243622e+00	1.245300e+00	1.247463e+00	1.249970e+00	1.253068e+00	1.253087e+00	1.252293e+00	1.253835e+00	1.255212e+00	1.256669e+00	1.258186e+00	1.259261e+00	1.260777e+00	1.261838e+00	1.264132e+00	1.267030e+00	1.269867e+00	1.271623e+00	1.274936e+00	1.279170e+00	1.282155e+00	1.286321e+00	1.291414e+00	1.296414e+00	1.302300e+00	1.310970e+00	1.320955e+00	1.336003e+00	1.331108e+00	1.393924e+00	1.378510e+00	1.381427e+00	1.381399e+00	1.382333e+00	1.381925e+00	1.383991e+00	1.383642e+00	1.382771e+00	1.385773e+00	1.385764e+00	1.383753e+00	1.385106e+00	1.386824e+00	1.385697e+00	1.384166e+00	1.384439e+00	1.386478e+00	1.386199e+00	1.384009e+00	1.383739e+00	1.383487e+00	1.385677e+00	1.385368e+00	1.383766e+00	1.383176e+00	1.382606e+00	1.384322e+00	1.385620e+00	1.384252e+00	1.383596e+00	1.382994e+00	1.382944e+00	1.384520e+00	1.386313e+00	1.384744e+00	1.383488e+00	1.382959e+00	1.382902e+00	1.383669e+00	1.386667e+00	1.386728e+00	1.383686e+00	1.382914e+00	1.381978e+00	1.381641e+00	1.382323e+00	1.385797e+00	1.385216e+00	1.381615e+00	1.380352e+00	1.378911e+00	1.378392e+00	1.378259e+00	1.378594e+00	1.382374e+00	1.381542e+00	1.378091e+00	1.376070e+00	1.374462e+00	1.373474e+00	1.372770e+00	1.372622e+00	1.372505e+00	1.376653e+00	1.377406e+00	1.373214e+00	1.370614e+00	1.368369e+00	1.366839e+00	1.365737e+00	1.364895e+00	1.364488e+00	1.364471e+00	1.364286e+00	1.370243e+00	1.371330e+00	1.364459e+00	1.361265e+00	1.358236e+00	1.356106e+00	1.354340e+00	1.353103e+00	1.352048e+00	1.351453e+00	1.351136e+00	1.350935e+00	1.356502e+00	1.357643e+00	1.351383e+00	1.347028e+00	1.342378e+00	1.338907e+00	1.335734e+00	1.333168e+00	1.330665e+00	1.328704e+00	1.326848e+00	1.325403e+00	1.324127e+00	1.323513e+00	1.327749e+00	1.326635e+00	1.318410e+00	1.313489e+00	1.308260e+00	1.304037e+00	1.300022e+00	1.296298e+00	1.292329e+00	1.288866e+00	1.285237e+00	1.281569e+00	1.277749e+00	1.274311e+00	1.269332e+00	1.265154e+00	1.261392e+00	1.259205e+00	1.255844e+00	1.252996e+00	1.249537e+00	1.246023e+00	1.242225e+00	1.238149e+00	1.234122e+00	1.229750e+00	1.225112e+00	1.219815e+00	1.214239e+00	1.207416e+00	1.190306e+00	1.178181e+00	1.182985e+00	1.189697e+00	1.193217e+00	1.195664e+00	1.196489e+00	1.197360e+00	1.197320e+00	1.197644e+00	1.198669e+00	1.199086e+00	1.197918e+00	1.208403e+00	1.232056e+00	1.092512e+00	7.828327e-01	7.052919e-01	7.369228e-01	7.594335e-01	7.547686e-01	7.509032e-01	7.479198e-01	7.447074e-01	7.413941e-01	7.379121e-01	7.340190e-01	7.300121e-01	7.259077e-01	7.231257e-01	7.209115e-01	7.172659e-01	7.126576e-01	7.186829e-01	7.723956e-01	8.274427e-01	8.268034e-01	8.220173e-01	8.196154e-01	8.185807e-01	8.177248e-01	8.167193e-01	8.153254e-01	8.131529e-01	8.102642e-01	8.078506e-01	8.067918e-01	8.059691e-01	8.018976e-01	8.016348e-01	8.386283e-01	9.010595e-01	9.300818e-01	9.320350e-01	9.281353e-01	9.246888e-01	9.218061e-01	9.186002e-01	9.150448e-01	9.113677e-01	9.079514e-01	9.051281e-01	9.031685e-01	9.004216e-01	8.931469e-01	8.861569e-01	9.083490e-01	9.674850e-01	1.007549e+00	1.003838e+00	9.867865e-01	9.753455e-01	9.699647e-01	9.658269e-01	9.605037e-01	9.543977e-01	9.486603e-01	9.439527e-01	9.393224e-01	9.328904e-01	9.238675e-01	9.247331e-01	9.603397e-01	1.023487e+00	1.067108e+00	1.088223e+00	1.100093e+00	1.107979e+00	1.113684e+00	1.118068e+00	1.121390e+00	1.123695e+00	1.125513e+00	1.127617e+00	1.128120e+00	1.121355e+00	1.101646e+00	1.091537e+00	1.107529e+00	1.130157e+00	1.144455e+00	1.155027e+00	1.162598e+00	1.168761e+00	1.174115e+00	1.178741e+00	1.182835e+00	1.186515e+00	1.189982e+00	1.192998e+00	1.194231e+00	1.193758e+00	1.197055e+00	1.203653e+00	1.208673e+00	1.213154e+00	1.217033e+00	1.220601e+00	1.223995e+00	1.227319e+00	1.230667e+00	1.233966e+00	1.237075e+00	1.240992e+00	1.248572e+00	1.252414e+00	1.250721e+00	1.249935e+00	1.249664e+00	1.250079e+00	1.250837e+00	1.251764e+00	1.252789e+00	1.253954e+00	1.255098e+00	1.256378e+00	1.258608e+00	1.260565e+00	1.260708e+00	1.260365e+00	1.260386e+00	1.260539e+00	1.260714e+00	1.260851e+00	1.260848e+00	1.260854e+00	1.260641e+00	1.258233e+00	1.254888e+00	1.256499e+00	1.260075e+00	1.262363e+00	1.264073e+00	1.264993e+00	1.265308e+00	1.265329e+00	1.265086e+00	1.260196e+00	1.251109e+00	1.253393e+00	1.263324e+00	1.269214e+00	1.273622e+00	1.276490e+00	1.278594e+00	1.280313e+00	1.278196e+00	1.270159e+00	1.273325e+00	1.284710e+00	1.291324e+00	1.297296e+00	1.301279e+00	1.304958e+00	1.307171e+00	1.304702e+00	1.307864e+00	1.316358e+00	1.322068e+00	1.327389e+00	1.331720e+00	1.335755e+00	1.338662e+00	1.342015e+00	1.346448e+00	1.350460e+00	1.354149e+00	1.357811e+00	1.362123e+00	1.366119e+00	1.368380e+00	1.370466e+00	1.372764e+00	1.374906e+00	1.376378e+00	1.378685e+00	1.381658e+00	1.384066e+00	1.384178e+00	1.383646e+00	1.388219e+00	1.393540e+00	1.391280e+00	1.391186e+00	1.401511e+00	1.405113e+00	1.406012e+00	1.422182e+00	1.426419e+00	1.441201e+00	1.459609e+00	1.482238e+00	1.505949e+00	1.534510e+00	1.572511e+00	1.585445e+00	1.675659e+00	1.201564e+00	1.203751e+00	1.203129e+00	1.292099e+00	1.291807e+00	1.292262e+00	1.291560e+00	1.291663e+00	1.291748e+00	1.291642e+00	1.291856e+00	1.291924e+00	1.291921e+00	1.292175e+00	1.292339e+00	1.291733e+00	1.291786e+00	1.291503e+00	1.291308e+00	1.291383e+00	1.293215e+00	1.293094e+00	1.292992e+00	1.292463e+00	1.292612e+00	1.291636e+00	1.291271e+00	1.291059e+00	1.291177e+00	1.292706e+00	1.292709e+00	1.291293e+00	1.291443e+00	1.291335e+00	1.292829e+00	1.293005e+00	1.290481e+00	1.290367e+00	1.290291e+00	1.292271e+00	1.291237e+00	1.293626e+00	1.289654e+00	1.289015e+00	1.289481e+00	1.325125e+00	1.326115e+00	1.322555e+00	1.388826e+00	1.397088e+00	1.395623e+00	1.395615e+00	1.391375e+00	1.389262e+00	1.391773e+00	1.255038e+00	1.256340e+00	1.254533e+00	1.245892e+00	1.246729e+00	1.245642e+00	1.246708e+00	1.244449e+00	1.223039e+00	1.219384e+00	1.220768e+00	1.254956e+00	1.252504e+00	1.252933e+00	1.396000e+00	1.393888e+00	1.395848e+00	1.388210e+00	1.386768e+00	1.389680e+00	1.389081e+00	1.386541e+00	1.349183e+00	1.352003e+00	1.353968e+00	1.387895e+00	1.385802e+00	1.386040e+00	1.390579e+00	1.387234e+00	1.390137e+00	1.385079e+00	1.384470e+00	1.389110e+00	1.389804e+00	1.365128e+00	1.368649e+00	1.368697e+00	1.192839e+00	1.033701e+00	6.895943e-01	1.196271e+00	1.186331e+00	1.198519e+00	6.434209e-01	6.293835e-01	6.341743e-01	7.749619e-01	7.111532e-01	7.306143e-01	7.103206e-01	7.576371e-01	1.206667e+00	9.953234e-01	9.255320e-01	6.355300e-01	6.313554e-01	1.210040e+00	6.323580e-01	1.201916e+00	1.198760e+00	5.766983e-01	5.774758e-01	5.744352e-01	1.222180e+00	1.222782e+00	1.213770e+00	1.216954e+00	1.213785e+00	1.341431e+00	1.338010e+00	1.343333e+00	1.206754e+00	1.208473e+00	1.206472e+00	1.211181e+00	1.213257e+00	1.224409e+00	1.225996e+00	1.224684e+00	1.333499e+00	1.334336e+00	1.213003e+00	1.212217e+00	1.212678e+00	1.212456e+00	1.222641e+00	1.223409e+00	1.224046e+00	1.216904e+00	1.214507e+00	1.218000e+00	1.220543e+00	1.218165e+00	1.220436e+00	1.222870e+00	1.227299e+00	1.219008e+00	1.214909e+00	1.229859e+00	1.229279e+00	1.229679e+00	1.395841e+00	1.392281e+00	1.393668e+00	1.388452e+00	1.391316e+00	1.388281e+00	1.260049e+00	1.259049e+00	1.258661e+00	1.260316e+00	1.262366e+00	1.261124e+00	1.382930e+00	1.382618e+00	1.380619e+00	1.259534e+00	1.258121e+00	1.255413e+00	1.260113e+00	1.261520e+00	1.261212e+00	1.256024e+00	1.259169e+00	1.249265e+00	1.248066e+00	1.246573e+00	1.254301e+00	1.251602e+00	1.253856e+00	1.198079e+00	1.191937e+00	1.185026e+00	1.392731e+00	1.396518e+00	1.395155e+00	1.267685e+00	1.264434e+00	1.267434e+00	1.264819e+00	1.266164e+00	1.266008e+00	1.395590e+00	1.397862e+00	1.400378e+00	1.379569e+00	1.377130e+00	1.376862e+00	1.381600e+00	1.393625e+00	1.392674e+00	1.373356e+00	1.375081e+00	1.376387e+00	1.363745e+00	1.363585e+00	1.361355e+00	1.396739e+00	1.382531e+00	1.382709e+00	1.386829e+00	1.386888e+00	1.389574e+00	1.264087e+00	1.258937e+00	1.231445e+00	1.260698e+00	1.259336e+00	1.258067e+00	1.228415e+00	1.232171e+00	1.228568e+00	1.271191e+00	1.267106e+00	1.269067e+00	1.290416e+00	1.291065e+00	1.288178e+00	1.269060e+00	1.269000e+00	1.266414e+00	1.272711e+00	1.272148e+00	1.270251e+00	1.276438e+00	1.235221e+00	1.233556e+00	1.248846e+00	1.248071e+00	1.252448e+00	1.277281e+00	1.277859e+00	1.279407e+00	1.232058e+00	1.228586e+00	1.228789e+00	1.285834e+00	1.289258e+00	1.288726e+00	1.226576e+00	1.217669e+00	1.217524e+00	1.221770e+00	1.220965e+00	1.280023e+00	1.283832e+00	1.206987e+00	1.211841e+00	1.284428e+00	1.213549e+00	1.207920e+00	1.206199e+00	1.302873e+00	1.299324e+00	1.300161e+00	1.304562e+00	1.319173e+00	1.320175e+00	1.325626e+00	1.280967e+00	1.281520e+00	1.277981e+00	1.351684e+00	1.323594e+00	1.349063e+00	1.310840e+00	1.314186e+00	1.315288e+00	1.380646e+00	1.379926e+00	1.396880e+00	1.397457e+00	1.396751e+00	1.383250e+00	1.384477e+00	1.382125e+00	1.287027e+00	1.287531e+00	1.286206e+00	1.227273e+00	1.252044e+00	1.244147e+00	1.245015e+00	1.213462e+00	1.378348e+00	1.369927e+00	1.369005e+00	1.372938e+00	1.376186e+00	1.374307e+00	1.373873e+00	1.372498e+00	1.376226e+00	1.369659e+00	1.368850e+00	1.374262e+00	1.396245e+00	1.397834e+00	1.396750e+00	1.371112e+00	1.371157e+00	1.385740e+00	1.383871e+00	1.385809e+00	1.375489e+00	1.388776e+00	1.355256e+00	1.355756e+00	1.360131e+00	1.371666e+00	1.372844e+00	1.373658e+00	1.359953e+00	1.362058e+00	1.357992e+00	1.361711e+00	1.356907e+00	1.392364e+00	1.389007e+00	1.393878e+00	5.683282e-01	5.694083e-01	5.680395e-01	5.755132e-01	5.739735e-01	5.763003e-01	1.371505e+00	1.370767e+00	1.366650e+00	1.355413e+00	1.359657e+00	1.373397e+00	1.371767e+00	1.359394e+00	1.359719e+00	1.357603e+00	1.391119e+00	1.391286e+00	1.391248e+00	1.216717e+00	1.214138e+00	1.212024e+00	1.217511e+00	1.219318e+00	1.220309e+00	1.213607e+00	1.217219e+00	1.213971e+00	1.211016e+00	1.217692e+00	1.217199e+00	1.214830e+00	1.222311e+00	1.221979e+00	1.221939e+00	1.218195e+00	1.212441e+00	1.213619e+00	1.221589e+00	1.221464e+00	1.216980e+00	1.221891e+00	1.220458e+00	1.217824e+00	1.221939e+00	1.219503e+00	1.216098e+00	1.212850e+00	1.215202e+00	1.223139e+00	1.225212e+00	1.223233e+00	1.220471e+00	1.222903e+00	1.221518e+00	6.024269e-01	6.116243e-01	5.901508e-01	1.220637e+00	1.217071e+00	5.803809e-01	5.777371e-01	1.222106e+00	1.221619e+00	1.394521e+00	1.391363e+00	1.393529e+00	1.288341e+00	1.290838e+00	1.287690e+00	1.328817e+00	1.326731e+00	1.325880e+00	1.256665e+00	1.251586e+00	1.252952e+00	1.196703e+00	1.189893e+00	1.179445e+00	1.175765e+00	1.172586e+00	1.182073e+00	1.182044e+00	1.176834e+00	1.167517e+00	1.175956e+00	1.170952e+00	1.291204e+00	1.291205e+00	1.291272e+00	1.148438e+00	1.136378e+00	1.135445e+00	1.141098e+00	1.131260e+00	1.129596e+00	1.125189e+00	1.117271e+00	1.119966e+00	1.126048e+00	1.110463e+00	1.080295e+00	1.079783e+00	1.096862e+00	1.094908e+00	1.078903e+00	1.088722e+00	1.088461e+00	1.085079e+00	1.089620e+00	1.081802e+00	1.073280e+00	1.084576e+00	1.085331e+00	1.146031e+00	1.120688e+00	1.083028e+00	1.077337e+00	1.082909e+00	1.077321e+00	1.072666e+00	1.072435e+00	1.080501e+00	1.075333e+00	1.078046e+00	1.038057e+00	1.060766e+00	1.049883e+00	1.068371e+00	1.064210e+00	1.061533e+00	1.290801e+00	1.290931e+00	1.290795e+00	1.026331e+00	1.040215e+00	1.139830e+00	1.148105e+00	1.144431e+00	1.056485e+00	1.052449e+00	1.054826e+00	1.019063e+00	1.029120e+00	1.012867e+00	1.047510e+00	1.037324e+00	1.044918e+00	1.024475e+00	1.028351e+00	1.033790e+00	1.056759e+00	1.056270e+00	1.059961e+00	1.006386e+00	1.002394e+00	1.027640e+00	1.034156e+00	1.051663e+00	1.048764e+00	1.050471e+00	1.071294e+00	1.070564e+00	1.070040e+00	1.180502e+00	1.183947e+00	1.178968e+00	1.175292e+00	1.176909e+00	1.189913e+00	1.186088e+00	1.188019e+00	1.392302e+00	1.388086e+00	1.391659e+00	1.326697e+00	1.326655e+00	1.330195e+00	1.322412e+00	1.322049e+00	1.325752e+00	1.297414e+00	1.297398e+00	1.313412e+00	1.307334e+00	1.309970e+00	1.255805e+00	1.259027e+00	1.259880e+00	1.260497e+00	1.257516e+00	1.257214e+00	1.258455e+00	1.258538e+00	1.256941e+00	1.257888e+00	1.249145e+00	1.255607e+00	1.262410e+00	1.336743e+00	1.333984e+00	1.335793e+00	1.317110e+00	1.311479e+00	1.291011e+00	1.192582e+00	1.189995e+00	1.190509e+00	1.185546e+00	1.182865e+00	1.181583e+00	1.395048e+00	1.396464e+00	1.392204e+00	1.387673e+00	1.388010e+00	1.168994e+00	1.192299e+00	1.166479e+00	1.165913e+00	1.338310e+00	1.337321e+00	1.334489e+00	1.288189e+00	1.207911e+00	1.209338e+00	1.207854e+00	1.202985e+00	1.199123e+00	1.201156e+00	1.204274e+00	1.202055e+00	1.205737e+00	1.261469e+00	1.261976e+00	1.261433e+00	1.263626e+00	1.262516e+00	1.291999e+00	1.299626e+00	1.292734e+00	1.286436e+00	1.288811e+00	1.288614e+00	1.282093e+00	1.273813e+00	1.273294e+00	1.233803e+00	1.238984e+00	1.239875e+00	1.245971e+00	1.247047e+00	1.252020e+00	1.249084e+00	1.154676e+00	1.167360e+00	1.161811e+00	1.283599e+00	1.198246e+00	1.185623e+00	1.225334e+00	1.236897e+00	1.231784e+00	1.123128e+00	1.125408e+00	1.163256e+00	1.172362e+00	1.168694e+00	1.128723e+00	1.128309e+00	1.134759e+00	1.121278e+00	1.117702e+00	1.284482e+00	1.110593e+00	1.100162e+00	1.242858e+00	1.231047e+00	1.250841e+00	1.235676e+00	1.248626e+00	1.107307e+00	1.116050e+00	1.103591e+00	1.133132e+00	1.123395e+00	1.132759e+00	1.046019e+00	1.073145e+00	9.952970e-01	1.071932e+00	1.088551e+00	1.054939e+00	9.165674e-01	9.084418e-01	9.195322e-01	9.113584e-01	9.024346e-01	9.346541e-01	9.290440e-01	9.253057e-01	1.109524e+00	1.124696e+00	1.129496e+00	1.152079e+00	1.380699e+00	1.376885e+00	1.380450e+00	1.379538e+00	1.381184e+00	1.377585e+00	1.382863e+00	1.385329e+00	1.384645e+00	1.375916e+00	1.376449e+00	1.374876e+00	1.382603e+00	1.388985e+00	1.385979e+00	1.260562e+00	1.252817e+00	1.261005e+00	1.253869e+00	1.258691e+00	1.257374e+00	1.257936e+00	1.251811e+00	1.250903e+00	1.251052e+00	1.261088e+00	1.250291e+00	1.250798e+00	1.261846e+00	1.261394e+00	1.244991e+00	1.247810e+00	1.246744e+00	1.261547e+00	1.262232e+00	1.261893e+00	1.250347e+00	1.390739e+00	1.391767e+00	1.392083e+00	1.389955e+00	1.391446e+00	1.387345e+00	1.393312e+00	1.390941e+00	1.392814e+00	1.388664e+00	1.389841e+00	1.392516e+00	1.393413e+00	1.392203e+00	1.389642e+00	1.388013e+00	1.389187e+00	1.385555e+00	1.389359e+00	1.389024e+00	1.393328e+00	1.392805e+00	1.396034e+00	1.396596e+00	1.389864e+00	1.387986e+00	1.388429e+00	1.339892e+00	1.335155e+00	1.341485e+00	1.343029e+00	1.344556e+00	1.344776e+00	1.348139e+00	1.338847e+00	1.332697e+00	1.336093e+00	1.357815e+00	1.358829e+00	1.355457e+00	1.338397e+00	1.341903e+00	1.342133e+00	1.351878e+00	1.355995e+00	1.328718e+00	1.328861e+00	1.364228e+00	1.362933e+00	1.365217e+00	1.369239e+00	1.330279e+00	1.327879e+00	1.362312e+00	1.327653e+00	1.376061e+00	1.379486e+00	1.379795e+00	1.294871e+00	1.383607e+00	1.390922e+00	1.390763e+00	1.392612e+00	1.392750e+00	1.386098e+00	1.280116e+00	1.284920e+00	1.283160e+00	1.385400e+00	1.388043e+00	1.277092e+00	1.273321e+00	1.397105e+00	1.398557e+00	1.397572e+00	1.314230e+00	1.312291e+00	1.309322e+00	1.388382e+00	1.261804e+00	1.262518e+00	1.267300e+00	1.266400e+00	1.271644e+00	1.250505e+00	1.249672e+00	1.253223e+00	1.256951e+00	1.262175e+00	1.263870e+00	1.266793e+00	1.252673e+00	1.251345e+00	1.247726e+00	1.231224e+00	1.243045e+00	1.245840e+00	1.237819e+00	1.226699e+00	1.225888e+00	1.231366e+00	1.227021e+00	1.219102e+00	1.227923e+00	1.196675e+00	1.190021e+00	1.194709e+00	1.200081e+00	1.21983