# vtk DataFile Version 3.0
vtk output
ASCII
DATASET UNSTRUCTURED_GRID
POINTS 698 double
0.000000e+00	0.000000e+00	0.0	3.087845e-03	3.932583e-03	0.0	6.141592e-03	7.821740e-03	0.0	1.010236e-02	1.067376e-02	0.0	1.406859e-02	1.344375e-02	0.0	1.831247e-02	1.562194e-02	0.0	2.262452e-02	1.757820e-02	0.0	2.694349e-02	1.938123e-02	0.0	3.133782e-02	2.085999e-02	0.0	3.568684e-02	2.232350e-02	0.0	4.005124e-02	2.357275e-02	0.0	4.439780e-02	2.472177e-02	0.0	4.870082e-02	2.585928e-02	0.0	5.301667e-02	2.674803e-02	0.0	5.729236e-02	2.761856e-02	0.0	6.153103e-02	2.845472e-02	0.0	6.576258e-02	2.909243e-02	0.0	6.995377e-02	2.972405e-02	0.0	7.410851e-02	3.032637e-02	0.0	7.823822e-02	3.082065e-02	0.0	8.232967e-02	3.131035e-02	0.0	8.638238e-02	3.180464e-02	0.0	9.038629e-02	3.238499e-02	0.0	9.435417e-02	3.296013e-02	0.0	9.828670e-02	3.353014e-02	0.0	1.021607e-01	3.422914e-02	0.0	1.059806e-01	3.503569e-02	0.0	1.097675e-01	3.583526e-02	0.0	1.135219e-01	3.662799e-02	0.0	1.172351e-01	3.745183e-02	0.0	1.208638e-01	3.848418e-02	0.0	1.244624e-01	3.950794e-02	0.0	1.280312e-01	4.052327e-02	0.0	1.315710e-01	4.153032e-02	0.0	1.350822e-01	4.252923e-02	0.0	1.385562e-01	4.355117e-02	0.0	1.419932e-01	4.459705e-02	0.0	1.454033e-01	4.563473e-02	0.0	1.487870e-01	4.666436e-02	0.0	1.521446e-01	4.768608e-02	0.0	1.554767e-01	4.870003e-02	0.0	1.587837e-01	4.970634e-02	0.0	1.620817e-01	5.065082e-02	0.0	1.653712e-01	5.153257e-02	0.0	1.686367e-01	5.240789e-02	0.0	1.718786e-01	5.327687e-02	0.0	1.750972e-01	5.413964e-02	0.0	1.782931e-01	5.499629e-02	0.0	1.814666e-01	5.584694e-02	0.0	1.846180e-01	5.669168e-02	0.0	1.877648e-01	5.745614e-02	0.0	1.909269e-01	5.805496e-02	0.0	1.940676e-01	5.864975e-02	0.0	1.971875e-01	5.924059e-02	0.0	2.002868e-01	5.982753e-02	0.0	2.033659e-01	6.041064e-02	0.0	2.064251e-01	6.099000e-02	0.0	2.094648e-01	6.156565e-02	0.0	2.124854e-01	6.213767e-02	0.0	2.154925e-01	6.266680e-02	0.0	2.185155e-01	6.294901e-02	0.0	2.215200e-01	6.322949e-02	0.0	2.245063e-01	6.350828e-02	0.0	2.274747e-01	6.378539e-02	0.0	2.304256e-01	6.406087e-02	0.0	2.333592e-01	6.433473e-02	0.0	2.362758e-01	6.460701e-02	0.0	2.391758e-01	6.487773e-02	0.0	2.420593e-01	6.514692e-02	0.0	2.449268e-01	6.541132e-02	0.0	2.477906e-01	6.544175e-02	0.0	2.506386e-01	6.547201e-02	0.0	2.534713e-01	6.550211e-02	0.0	2.562888e-01	6.553205e-02	0.0	2.590915e-01	6.556183e-02	0.0	2.618795e-01	6.559145e-02	0.0	2.646531e-01	6.562092e-02	0.0	2.674125e-01	6.565024e-02	0.0	2.701581e-01	6.567942e-02	0.0	2.728899e-01	6.570845e-02	0.0	2.756083e-01	6.573733e-02	0.0	2.783096e-01	6.560594e-02	0.0	2.809973e-01	6.544675e-02	0.0	2.836722e-01	6.528832e-02	0.0	2.863346e-01	6.513064e-02	0.0	2.889846e-01	6.497368e-02	0.0	2.916226e-01	6.481744e-02	0.0	2.942486e-01	6.466190e-02	0.0	2.968630e-01	6.450705e-02	0.0	2.994659e-01	6.435289e-02	0.0	3.020575e-01	6.419940e-02	0.0	3.046379e-01	6.404656e-02	0.0	3.072075e-01	6.389436e-02	0.0	3.097594e-01	6.366253e-02	0.0	3.122956e-01	6.337166e-02	0.0	3.148215e-01	6.308198e-02	0.0	3.173374e-01	6.279346e-02	0.0	3.198432e-01	6.250607e-02	0.0	3.223394e-01	6.221980e-02	0.0	3.248260e-01	6.193463e-02	0.0	3.273031e-01	6.165054e-02	0.0	3.297711e-01	6.136750e-02	0.0	3.322300e-01	6.108551e-02	0.0	3.346800e-01	6.080453e-02	0.0	3.371212e-01	6.052455e-02	0.0	3.395540e-01	6.024556e-02	0.0	3.419771e-01	5.995803e-02	0.0	3.443858e-01	5.962276e-02	0.0	3.467864e-01	5.928861e-02	0.0	3.491791e-01	5.895557e-02	0.0	3.515641e-01	5.862360e-02	0.0	3.539414e-01	5.829270e-02	0.0	3.563113e-01	5.796283e-02	0.0	3.586739e-01	5.763397e-02	0.0	3.610294e-01	5.730612e-02	0.0	3.633778e-01	5.697923e-02	0.0	3.657194e-01	5.665331e-02	0.0	3.680542e-01	5.632832e-02	0.0	3.703825e-01	5.600425e-02	0.0	3.727042e-01	5.568108e-02	0.0	3.750197e-01	5.535879e-02	0.0	3.773311e-01	5.505273e-02	0.0	3.796373e-01	5.475364e-02	0.0	3.819375e-01	5.445531e-02	0.0	3.842319e-01	5.415773e-02	0.0	3.865207e-01	5.386089e-02	0.0	3.888040e-01	5.356477e-02	0.0	3.910819e-01	5.326934e-02	0.0	3.933545e-01	5.297459e-02	0.0	3.956220e-01	5.268052e-02	0.0	3.978845e-01	5.238709e-02	0.0	4.001420e-01	5.209430e-02	0.0	4.023948e-01	5.180212e-02	0.0	4.046430e-01	5.151055e-02	0.0	4.068866e-01	5.121956e-02	0.0	4.091259e-01	5.092915e-02	0.0	4.113650e-01	5.067729e-02	0.0	4.136057e-01	5.047814e-02	0.0	4.158422e-01	5.027934e-02	0.0	4.180749e-01	5.008090e-02	0.0	4.203037e-01	4.988280e-02	0.0	4.225288e-01	4.968502e-02	0.0	4.247503e-01	4.948757e-02	0.0	4.269683e-01	4.929043e-02	0.0	4.291830e-01	4.909358e-02	0.0	4.313944e-01	4.889703e-02	0.0	4.336027e-01	4.870075e-02	0.0	4.358079e-01	4.850474e-02	0.0	4.380102e-01	4.830900e-02	0.0	4.402097e-01	4.811350e-02	0.0	4.424065e-01	4.791824e-02	0.0	4.446008e-01	4.772321e-02	0.0	4.467963e-01	4.758782e-02	0.0	4.489927e-01	4.750439e-02	0.0	4.511869e-01	4.742105e-02	0.0	4.533789e-01	4.733780e-02	0.0	4.555689e-01	4.725462e-02	0.0	4.577569e-01	4.717152e-02	0.0	4.599431e-01	4.708848e-02	0.0	4.621275e-01	4.700552e-02	0.0	4.643103e-01	4.692261e-02	0.0	4.664916e-01	4.683976e-02	0.0	4.686715e-01	4.675696e-02	0.0	4.708501e-01	4.667422e-02	0.0	4.730275e-01	4.659152e-02	0.0	4.752038e-01	4.650886e-02	0.0	4.773791e-01	4.642624e-02	0.0	4.795536e-01	4.634365e-02	0.0	4.817277e-01	4.628711e-02	0.0	4.839022e-01	4.629559e-02	0.0	4.860761e-01	4.630406e-02	0.0	4.882496e-01	4.631254e-02	0.0	4.904227e-01	4.632102e-02	0.0	4.925956e-01	4.632949e-02	0.0	4.947683e-01	4.633797e-02	0.0	4.969409e-01	4.634644e-02	0.0	4.991136e-01	4.635491e-02	0.0	5.012865e-01	4.636339e-02	0.0	5.034596e-01	4.637186e-02	0.0	5.056331e-01	4.638034e-02	0.0	5.078070e-01	4.638882e-02	0.0	5.099816e-01	4.639730e-02	0.0	5.121568e-01	4.640578e-02	0.0	5.143327e-01	4.641427e-02	0.0	5.165096e-01	4.642276e-02	0.0	5.186861e-01	4.649681e-02	0.0	5.208636e-01	4.657672e-02	0.0	5.230423e-01	4.665667e-02	0.0	5.252223e-01	4.673667e-02	0.0	5.274037e-01	4.681672e-02	0.0	5.295867e-01	4.689683e-02	0.0	5.317712e-01	4.697700e-02	0.0	5.339575e-01	4.705723e-02	0.0	5.361456e-01	4.713753e-02	0.0	5.383357e-01	4.721790e-02	0.0	5.405278e-01	4.729835e-02	0.0	5.427221e-01	4.737887e-02	0.0	5.449186e-01	4.745948e-02	0.0	5.471175e-01	4.754018e-02	0.0	5.493189e-01	4.762096e-02	0.0	5.515229e-01	4.770185e-02	0.0	5.537281e-01	4.781577e-02	0.0	5.559353e-01	4.794387e-02	0.0	5.581456e-01	4.807215e-02	0.0	5.603588e-01	4.820060e-02	0.0	5.625752e-01	4.832924e-02	0.0	5.647948e-01	4.845806e-02	0.0	5.670179e-01	4.858708e-02	0.0	5.692444e-01	4.871630e-02	0.0	5.714745e-01	4.884573e-02	0.0	5.737084e-01	4.897538e-02	0.0	5.759460e-01	4.910525e-02	0.0	5.781877e-01	4.923535e-02	0.0	5.804334e-01	4.936569e-02	0.0	5.826833e-01	4.949627e-02	0.0	5.849375e-01	4.962709e-02	0.0	5.871961e-01	4.975818e-02	0.0	5.894591e-01	4.989269e-02	0.0	5.917268e-01	5.002780e-02	0.0	5.939992e-01	5.016320e-02	0.0	5.962766e-01	5.029889e-02	0.0	5.985590e-01	5.043489e-02	0.0	6.008466e-01	5.057119e-02	0.0	6.031395e-01	5.070780e-02	0.0	6.054378e-01	5.084474e-02	0.0	6.077417e-01	5.098201e-02	0.0	6.100513e-01	5.111962e-02	0.0	6.123667e-01	5.125758e-02	0.0	6.146880e-01	5.139589e-02	0.0	6.170154e-01	5.153457e-02	0.0	6.193491e-01	5.167361e-02	0.0	6.216891e-01	5.181304e-02	0.0	6.240375e-01	5.191473e-02	0.0	6.263931e-01	5.200661e-02	0.0	6.287554e-01	5.209876e-02	0.0	6.311247e-01	5.219117e-02	0.0	6.335011e-01	5.228386e-02	0.0	6.358846e-01	5.237684e-02	0.0	6.382756e-01	5.247010e-02	0.0	6.406740e-01	5.256365e-02	0.0	6.430801e-01	5.265751e-02	0.0	6.454941e-01	5.275167e-02	0.0	6.479160e-01	5.284614e-02	0.0	6.503461e-01	5.294092e-02	0.0	6.527844e-01	5.303603e-02	0.0	6.552312e-01	5.313147e-02	0.0	6.576877e-01	5.316907e-02	0.0	6.601537e-01	5.316008e-02	0.0	6.626287e-01	5.315107e-02	0.0	6.651128e-01	5.314201e-02	0.0	6.676062e-01	5.313293e-02	0.0	6.701091e-01	5.312381e-02	0.0	6.726216e-01	5.311465e-02	0.0	6.751438e-01	5.310546e-02	0.0	6.776761e-01	5.309624e-02	0.0	6.802186e-01	5.308697e-02	0.0	6.827714e-01	5.307767e-02	0.0	6.853347e-01	5.306833e-02	0.0	6.879088e-01	5.305895e-02	0.0	6.904926e-01	5.300696e-02	0.0	6.930851e-01	5.286914e-02	0.0	6.956888e-01	5.273073e-02	0.0	6.983041e-01	5.259170e-02	0.0	7.009310e-01	5.245206e-02	0.0	7.035699e-01	5.231177e-02	0.0	7.062208e-01	5.217085e-02	0.0	7.088841e-01	5.202927e-02	0.0	7.115599e-01	5.188702e-02	0.0	7.142485e-01	5.174410e-02	0.0	7.169500e-01	5.160049e-02	0.0	7.196648e-01	5.145617e-02	0.0	7.223902e-01	5.127645e-02	0.0	7.251219e-01	5.099955e-02	0.0	7.278675e-01	5.072125e-02	0.0	7.306271e-01	5.044152e-02	0.0	7.334010e-01	5.016034e-02	0.0	7.361895e-01	4.987768e-02	0.0	7.389929e-01	4.959352e-02	0.0	7.418112e-01	4.930784e-02	0.0	7.446450e-01	4.902060e-02	0.0	7.474943e-01	4.873178e-02	0.0	7.503594e-01	4.844135e-02	0.0	7.532321e-01	4.808124e-02	0.0	7.561121e-01	4.764684e-02	0.0	7.590086e-01	4.720993e-02	0.0	7.619220e-01	4.677049e-02	0.0	7.648526e-01	4.632845e-02	0.0	7.678006e-01	4.588378e-02	0.0	7.707663e-01	4.543644e-02	0.0	7.737501e-01	4.498638e-02	0.0	7.767523e-01	4.453354e-02	0.0	7.797714e-01	4.406820e-02	0.0	7.827868e-01	4.347005e-02	0.0	7.858215e-01	4.286811e-02	0.0	7.888756e-01	4.226229e-02	0.0	7.919495e-01	4.165255e-02	0.0	7.950436e-01	4.103880e-02	0.0	7.981582e-01	4.042098e-02	0.0	8.012937e-01	3.979902e-02	0.0	8.044505e-01	3.917285e-02	0.0	8.076109e-01	3.845833e-02	0.0	8.107915e-01	3.773090e-02	0.0	8.139943e-01	3.699839e-02	0.0	8.172197e-01	3.626071e-02	0.0	8.204681e-01	3.551776e-02	0.0	8.237399e-01	3.476945e-02	0.0	8.270356e-01	3.401570e-02	0.0	8.303534e-01	3.324708e-02	0.0	8.336949e-01	3.246852e-02	0.0	8.370614e-01	3.168411e-02	0.0	8.404535e-01	3.089375e-02	0.0	8.438716e-01	3.009733e-02	0.0	8.473162e-01	2.929474e-02	0.0	8.507894e-01	2.849331e-02	0.0	8.543042e-01	2.774958e-02	0.0	8.578471e-01	2.699992e-02	0.0	8.614185e-01	2.624421e-02	0.0	8.650190e-01	2.548236e-02	0.0	8.686491e-01	2.471423e-02	0.0	8.723094e-01	2.393973e-02	0.0	8.760148e-01	2.323047e-02	0.0	8.797522e-01	2.251849e-02	0.0	8.835217e-01	2.180042e-02	0.0	8.873237e-01	2.107614e-02	0.0	8.911588e-01	2.034555e-02	0.0	8.950301e-01	1.962079e-02	0.0	8.989416e-01	1.892081e-02	0.0	9.028882e-01	1.821454e-02	0.0	9.068707e-01	1.750185e-02	0.0	9.108897e-01	1.678264e-02	0.0	9.149461e-01
[...]
POINT_DATA 698

SCALARS Density double 1
LOOKUP_TABLE default
1.549123e+00	1.240690e+00	1.224432e+00	1.093689e+00	1.053478e+00	9.924774e-01	9.809420e-01	9.534633e-01	9.413139e-01	9.431113e-01	9.355012e-01	9.627876e-01	9.778250e-01	1.003713e+00	1.056174e+00	1.066804e+00	1.090817e+00	1.136101e+00	1.155710e+00	1.182837e+00	1.217589e+00	1.242568e+00	1.255442e+00	1.262724e+00	1.282126e+00	1.292956e+00	1.284456e+00	1.279474e+00	1.286655e+00	1.299295e+00	1.287071e+00	1.259176e+00	1.248963e+00	1.242196e+00	1.236807e+00	1.229676e+00	1.215624e+00	1.199126e+00	1.185544e+00	1.170661e+00	1.152264e+00	1.127869e+00	1.108799e+00	1.109616e+00	1.115478e+00	1.110179e+00	1.098859e+00	1.083194e+00	1.055347e+00	1.004184e+00	9.322040e-01	8.918567e-01	8.972432e-01	9.081195e-01	9.176531e-01	9.265620e-01	9.360922e-01	9.388911e-01	9.213491e-01	8.430922e-01	7.737698e-01	7.699851e-01	7.797969e-01	7.862172e-01	7.918162e-01	7.948176e-01	7.986202e-01	8.050149e-01	8.077117e-01	7.516088e-01	6.923506e-01	6.844782e-01	6.907023e-01	6.947167e-01	6.970275e-01	6.984721e-01	6.998110e-01	7.015944e-01	7.050893e-01	7.075035e-01	6.700472e-01	6.259761e-01	6.151389e-01	6.172779e-01	6.210987e-01	6.231337e-01	6.235392e-01	6.240414e-01	6.252528e-01	6.265208e-01	6.276881e-01	6.289558e-01	6.129982e-01	5.795929e-01	5.616619e-01	5.611785e-01	5.656501e-01	5.679945e-01	5.689769e-01	5.689584e-01	5.689525e-01	5.695775e-01	5.704341e-01	5.713428e-01	5.723010e-01	5.718673e-01	5.590381e-01	5.465856e-01	5.462433e-01	5.487110e-01	5.507899e-01	5.516671e-01	5.520221e-01	5.524656e-01	5.529907e-01	5.536085e-01	5.541904e-01	5.547387e-01	5.551932e-01	5.555240e-01	5.598210e-01	5.663734e-01	5.695337e-01	5.698870e-01	5.697733e-01	5.702319e-01	5.712345e-01	5.722459e-01	5.730630e-01	5.736868e-01	5.743098e-01	5.749119e-01	5.755091e-01	5.758819e-01	5.749142e-01	5.849088e-01	6.092167e-01	6.298179e-01	6.319163e-01	6.314420e-01	6.303766e-01	6.320140e-01	6.307156e-01	6.640103e-01	8.202986e-01	1.121978e+00	1.195759e+00	1.188430e+00	1.193514e+00	1.202148e+00	1.209277e+00	1.220129e+00	1.225710e+00	1.217547e+00	1.210411e+00	1.208847e+00	1.207847e+00	1.207235e+00	1.206969e+00	1.207269e+00	1.207822e+00	1.208774e+00	1.209864e+00	1.211628e+00	1.213313e+00	1.216763e+00	1.220695e+00	1.226109e+00	1.232073e+00	1.226850e+00	1.216977e+00	1.215002e+00	1.213038e+00	1.211274e+00	1.210180e+00	1.209296e+00	1.208618e+00	1.208392e+00	1.208319e+00	1.208703e+00	1.209252e+00	1.210481e+00	1.213015e+00	1.215277e+00	1.222004e+00	1.219847e+00	1.209455e+00	1.206438e+00	1.203970e+00	1.201593e+00	1.199635e+00	1.197871e+00	1.196663e+00	1.195235e+00	1.194373e+00	1.193524e+00	1.192893e+00	1.192717e+00	1.193370e+00	1.194314e+00	1.197516e+00	1.196757e+00	1.189386e+00	1.184668e+00	1.181707e+00	1.179090e+00	1.176346e+00	1.173934e+00	1.171513e+00	1.169252e+00	1.167077e+00	1.164929e+00	1.162845e+00	1.160784e+00	1.158711e+00	1.156798e+00	1.154790e+00	1.152560e+00	1.149567e+00	1.146932e+00	1.144468e+00	1.141639e+00	1.138889e+00	1.136135e+00	1.133075e+00	1.130016e+00	1.126401e+00	1.122690e+00	1.118252e+00	1.112477e+00	1.105785e+00	1.095995e+00	1.092887e+00	1.098740e+00	1.100432e+00	1.098743e+00	1.096735e+00	1.094709e+00	1.091770e+00	1.088309e+00	1.084151e+00	1.079052e+00	1.072581e+00	1.063268e+00	1.050496e+00	1.030811e+00	1.019733e+00	1.035075e+00	1.052827e+00	1.055585e+00	1.055347e+00	1.055271e+00	1.054184e+00	1.051578e+00	1.047881e+00	1.042269e+00	1.033582e+00	1.019374e+00	9.966244e-01	9.754505e-01	9.909483e-01	1.024843e+00	1.036164e+00	1.038431e+00	1.039574e+00	1.040207e+00	1.039396e+00	1.036239e+00	1.030599e+00	1.019532e+00	1.001779e+00	9.829937e-01	9.962330e-01	1.031193e+00	1.043971e+00	1.047414e+00	1.049997e+00	1.051231e+00	1.050837e+00	1.046490e+00	1.038080e+00	1.022686e+00	1.015426e+00	1.036742e+00	1.064042e+00	1.073802e+00	1.077119e+00	1.080475e+00	1.081587e+00	1.079311e+00	1.073501e+00	1.060196e+00	1.071923e+00	1.101661e+00	1.113200e+00	1.118780e+00	1.124036e+00	1.127288e+00	1.128848e+00	1.125378e+00	1.133382e+00	1.151019e+00	1.160263e+00	1.166903e+00	1.173098e+00	1.178670e+00	1.183407e+00	1.188963e+00	1.195428e+00	1.201684e+00	1.207423e+00	1.214001e+00	1.220444e+00	1.228200e+00	1.230360e+00	1.228351e+00	1.231384e+00	1.235301e+00	1.239053e+00	1.245923e+00	1.246821e+00	1.243622e+00	1.245300e+00	1.247463e+00	1.249970e+00	1.253068e+00	1.253087e+00	1.252293e+00	1.253835e+00	1.255212e+00	1.256669e+00	1.258186e+00	1.259261e+00	1.260777e+00	1.261838e+00	1.264132e+00	1.267030e+00	1.269867e+00	1.271623e+00	1.274936e+00	1.279170e+00	1.282155e+00	1.286321e+00	1.291414e+00	1.296414e+00	1.302300e+00	1.310970e+00	1.320955e+00	1.336003e+00	1.331108e+00	1.393924e+00	1.378510e+00	1.381427e+00	1.381399e+00	1.382333e+00	1.381925e+00	1.383991e+00	1.383642e+00	1.382771e+00	1.385773e+00	1.385764e+00	1.383753e+00	1.385106e+00	1.386824e+00	1.385697e+00	1.384166e+00	1.384439e+00	1.386478e+00	1.386199e+00	1.384009e+00	1.383739e+00	1.383487e+00	1.385677e+00	1.385368e+00	1.383766e+00	1.383176e+00	1.382606e+00	1.384322e+00	1.385620e+00	1.384252e+00	1.383596e+00	1.382994e+00	1.382944e+00	1.384520e+00	1.386313e+00	1.384744e+00	1.383488e+00	1.382959e+00	1.382902e+00	1.383669e+00	1.386667e+00	1.386728e+00	1.383686e+00	1.382914e+00	1.381978e+00	1.381641e+00	1.382323e+00	1.385797e+00	1.385216e+00	1.381615e+00	1.380352e+00	1.378911e+00	1.378392e+00	1.378259e+00	1.378594e+00	1.382374e+00	1.381542e+00	1.378091e+00	1.376070e+00	1.374462e+00	1.373474e+00	1.372770e+00	1.372622e+00	1.372505e+00	1.376653e+00	1.377406e+00	1.373214e+00	1.370614e+00	1.368369e+00	1.366839e+00	1.365737e+00	1.364895e+00	1.364488e+00	1.364471e+00	1.364286e+00	1.370243e+00	1.371330e+00	1.364459e+00	1.361265e+00	1.358236e+00	1.356106e+00	1.354340e+00	1.353103e+00	1.352048e+00	1.351453e+00	1.351136e+00	1.350935e+00	1.356502e+00	1.357643e+00	1.351383e+00	1.347028e+00	1.342378e+00	1.338907e+00	1.335734e+00	1.333168e+00	1.330665e+00	1.328704e+00	1.326848e+00	1.325403e+00	1.324127e+00	1.323513e+00	1.327749e+00	1.326635e+00	1.318410e+00	1.313489e+00	1.308260e+00	1.304037e+00	1.300022e+00	1.296298e+00	1.292329e+00	1.288866e+00	1.285237e+00	1.281569e+00	1.277749e+00	1.274311e+00	1.269332e+00	1.265154e+00	1.261392e+00	1.259205e+00	1.255844e+00	1.252996e+00	1.249537e+00	1.246023e+00	1.242225e+00	1.238149e+00	1.234122e+00	1.229750e+00	1.225112e+00	1.219815e+00	1.214239e+00	1.207416e+00	1.190306e+00	1.178181e+00	1.182985e+00	1.189697e+00	1.193217e+00	1.195664e+00	1.196489e+00	1.197360e+00	1.197320e+00	1.197644e+00	1.198669e+00	1.199086e+00	1.197918e+00	1.208403e+00	1.232056e+00	1.092512e+00	7.828327e-01	7.052919e-01	7.369228e-01	7.594335e-01	7.547686e-01	7.509032e-01	7.479198e-01	7.447074e-01	7.413941e-01	7.379121e-01	7.340190e-01	7.300121e-01	7.259077e-01	7.231257e-01	7.209115e-01	7.172659e-01	7.126576e-01	7.186829e-01	7.723956e-01	8.274427e-01	8.268034e-01	8.220173e-01	8.196154e-01	8.185807e-01	8.177248e-01	8.167193e-01	8.153254e-01	8.131529e-01	8.102642e-01	8.078506e-01	8.067918e-01	8.059691e-01	8.018976e-01	8.016348e-01	8.386283e-01	9.010595e-01	9.300818e-01	9.320350e-01	9.281353e-01	9.246888e-01	9.218061e-01	9.186002e-01	9.150448e-01	9.113677e-01	9.079514e-01	9.051281e-01	9.031685e-01	9.004216e-01	8.931469e-01	8.861569e-01	9.083490e-01	9.674850e-01	1.007549e+00	1.003838e+00	9.867865e-01	9.753455e-01	9.699647e-01	9.658269e-01	9.605037e-01	9.543977e-01	9.486603e-01	9.439527e-01	9.393224e-01	9.328904e-01	9.238675e-01	9.247331e-01	9.603397e-01	1.023487e+00	1.067108e+00	1.088223e+00	1.100093e+00	1.107979e+00	1.113684e+00	1.118068e+00	1.121390e+00	1.123695e+00	1.125513e+00	1.127617e+00	1.128120e+00	1.121355e+00	1.101646e+00	1.091537e+00	1.107529e+00	1.130157e+00	1.144455e+00	1.155027e+00	1.162598e+00	1.168761e+00	1.174115e+00	1.178741e+00	1.182835e+00	1.186515e+00	1.189982e+00	1.192998e+00	1.194231e+00	1.193758e+00	1.197055e+00	1.203653e+00	1.208673e+00	1.213154e+00	1.217033e+00	1.220601e+00	1.223995e+00	1.227319e+00	1.230667e+00	1.233966e+00	1.237075e+00	1.240992e+00	1.248572e+00	1.252414e+00	1.250721e+00	1.249935e+00	1.249664e+00	1.250079e+00	1.250837e+00	1.251764e+00	1.252789e+00	1.253954e+00	1.255098e+00	1.256378e+00	1.258608e+00	1.260565e+00	1.260708e+00	1.260365e+00	1.260386e+00	1.260539e+00	1.260714e+00	1.260851e+00	1.260848e+00	1.260854e+00	1.260641e+00	1.258233e+00	1.254888e+00	1.256499e+00	1.260075e+00	1.262363e+00	1.264073e+00	1.264993e+00	1.265308e+00	1.265329e+00	1.265086e+00	1.260196e+00	1.251109e+00	1.253393e+00	1.263324e+00	1.269214e+00	1.273622e+00	1.276490e+00	1.278594e+00	1.280313e+00	1.278196e+00	1.270159e+00	1.273325e+00	1.284710e+00	1.291324e+00	1.297296e+00	1.301279e+00	1.304958e+00	1.307171e+00	1.304702e+00	1.307864e+00	1.316358e+00	1.322068e+00	1.327389e+00	1.331720e+00	1.335755e+00	1.338662e+00	1.342015e+00	1.346448e+00	1.350460e+00	1.354149e+00	1.357811e+00	1.362123e+00	1.366119e+00	1.368380e+00	1.370466e+00	1.372764e+00	1.374906e+00	1.376378e+00	1.378685e+00	1.381658e+00	1.384066e+00	1.384178e+00	1.383646e+00	1.388219e+00	1.393540e+00	1.391280e+00	1.391186e+00	1.401511e+00	1.405113e+00	1.406012e+00	1.422182e+00	1.426419e+00	1.441201e+00	1.459609e+00	1.482238e+00	1.505949e+00	1.534510e+00	1.572511e+00	1.585445e+00	1.675659e+00	
VECTORS Momentum double
2.473829e+01	1.903359e+02	0.0	1.594310e+02	1.943828e+02	0.0	2.005170e+02	1.946671e+02	0.0	2.398698e+02	1.684865e+02	0.0	2.641940e+02	1.582568e+02	0.0	2.768694e+02	1.337206e+02	0.0	2.856588e+02	1.241290e+02	0.0	2.920478e+02	1.099042e+02	0.0	2.958736e+02	9.887908e+01	0.0	3.001230e+02	9.333318e+01	0.0	3.005165e+02	8.268371e+01	0.0	3.042481e+02	8.040091e+01	0.0	3.064178e+02	7.230064e+01	0.0	3.051945e+02	6.238937e+01	0.0	3.075228e+02	6.198805e+01	0.0	3.077335e+02	5.394265e+01	0.0	3.042483e+02	4.561654e+01	0.0	3.030709e+02	4.496908e+01	0.0	3.003657e+02	4.001080e+01	0.0	2.953451e+02	3.535454e+01	0.0	2.894065e+02	3.498614e+01	0.0	2.847268e+02	3.800296e+01	0.0	2.824949e+02	4.100710e+01	0.0	2.778181e+02	4.024860e+01	0.0	2.719945e+02	4.408687e+01	0.0	2.708779e+02	5.282068e+01	0.0	2.728762e+02	5.761171e+01	0.0	2.729981e+02	5.763238e+01	0.0	2.686618e+02	5.813758e+01	0.0	2.664848e+02	6.747870e+01	0.0	2.700851e+02	7.710955e+01	0.0	2.744169e+02	7.805925e+01	0.0	2.769908e+02	7.877222e+01	0.0	2.783079e+02	7.918857e+01	0.0	2.791269e+02	8.071566e+01	0.0	2.805119e+02	8.397499e+01	0.0	2.831483e+02	8.628118e+01	0.0	2.857492e+02	8.699248e+01	0.0	2.881941e+02	8.768907e+01	0.0	2.907216e+02	8.846745e+01	0.0	2.937659e+02	8.941271e+01	0.0	2.975960e+02	8.793289e+01	0.0	2.999550e+02	8.293926e+01	0.0	3.008342e+02	8.029307e+01	0.0	3.010528e+02	8.063230e+01	0.0	3.014793e+02	8.086824e+01	0.0	3.021490e+02	8.104040e+01	0.0	3.037642e+02	8.140160e+01	0.0	3.056761e+02	8.209651e+01	0.0	3.090153e+02	7.980088e+01	0.0	3.091061e+02	6.731496e+01	0.0	3.068604e+02	5.744464e+01	0.0	3.084717e+02	5.793769e+01	0.0	3.089499e+02	5.856918e+01	0.0	3.094435e+02	5.868825e+01	0.0	3.097967e+02	5.867430e+01	0.0	3.099599e+02	5.870956e+01	0.0	3.096915e+02	5.879046e+01	0.0	3.114251e+02	5.882593e+01	0.0	3.052718e+02	4.317103e+01	0.0	2.958498e+02	2.686667e+01	0.0	2.966016e+02	2.604504e+01	0.0	2.987646e+02	2.794895e+01	0.0	2.991905e+02	2.807214e+01	0.0	3.002678e+02	2.818019e+01	0.0	3.009101e+02	2.817158e+01	0.0	3.014495e+02	2.810558e+01	0.0	3.011519e+02	2.804417e+01	0.0	3.041519e+02	2.971257e+01	0.0	2.953030e+02	1.728595e+01	0.0	2.830156e+02	3.586347e+00	0.0	2.820718e+02	2.208586e+00	0.0	2.839953e+02	2.957967e+00	0.0	2.848259e+02	3.179483e+00	0.0	2.852439e+02	3.147804e+00	0.0	2.854691e+02	3.056989e+00	0.0	2.857532e+02	3.023362e+00	0.0	2.861049e+02	3.026963e+00	0.0	2.865586e+02	3.047818e+00	0.0	2.879246e+02	3.512404e+00	0.0	2.799468e+02	-4.089811e+00	0.0	2.684434e+02	-1.435556e+01	0.0	2.660254e+02	-1.643867e+01	0.0	2.670212e+02	-1.632053e+01	0.0	2.683588e+02	-1.596237e+01	0.0	2.687873e+02	-1.580954e+01	0.0	2.688171e+02	-1.585144e+01	0.0	2.688823e+02	-1.593097e+01	0.0	2.691916e+02	-1.596207e+01	0.0	2.694729e+02	-1.597191e+01	0.0	2.695419e+02	-1.592864e+01	0.0	2.702617e+02	-1.582351e+01	0.0	2.665353e+02	-1.902870e+01	0.0	2.563584e+02	-2.574165e+01	0.0	2.510692e+02	-2.921576e+01	0.0	2.512476e+02	-2.965132e+01	0.0	2.527576e+02	-2.936862e+01	0.0	2.534537e+02	-2.912191e+01	0.0	2.536984e+02	-2.900762e+01	0.0	2.536642e+02	-2.907073e+01	0.0	2.535904e+02	-2.908954e+01	0.0	2.537642e+02	-2.912599e+01	0.0	2.540005e+02	-2.914789e+01	0.0	2.542462e+02	-2.915521e+01	0.0	2.545067e+02	-2.918809e+01	0.0	2.546337e+02	-2.947627e+01	0.0	2.506037e+02	-3.203257e+01	0.0	2.464062e+02	-3.457551e+01	0.0	2.465350e+02	-3.497317e+01	0.0	2.474014e+02	-3.475639e+01	0.0	2.480816e+02	-3.457809e+01	0.0	2.483068e+02	-3.451314e+01	0.0	2.483636e+02	-3.454754e+01	0.0	2.484622e+02	-3.457325e+01	0.0	2.485828e+02	-3.460197e+01	0.0	2.487761e+02	-3.463179e+01	0.0	2.489395e+02	-3.465098e+01	0.0	2.490822e+02	-3.466727e+01	0.0	2.492499e+02	-3.469382e+01	0.0	2.492533e+02	-3.478447e+01	0.0	2.505662e+02	-3.416955e+01	0.0	2.526587e+02	-3.313618e+01	0.0	2.535751e+02	-3.267567e+01	0.0	2.535518e+02	-3.271349e+01	0.0	2.534369e+02	-3.283581e+01	0.0	2.535261e+02	-3.290136e+01	0.0	2.538321e+02	-3.294498e+01	0.0	2.541324e+02	-3.296735e+01	0.0	2.543492e+02	-3.298507e+01	0.0	2.544965e+02	-3.299924e+01	0.0	2.546620e+02	-3.302377e+01	0.0	2.547947e+02	-3.304467e+01	0.0	2.549077e+02	-3.305474e+01	0.0	2.551966e+02	-3.306945e+01	0.0	2.546648e+02	-3.339522e+01	0.0	2.576964e+02	-3.206126e+01	0.0	2.646859e+02	-2.751516e+01	0.0	2.708381e+02	-2.370421e+01	0.0	2.708542e+02	-2.372177e+01	0.0	2.705019e+02	-2.362787e+01	0.0	2.701996e+02	-2.398197e+01	0.0	2.711344e+02	-2.420301e+01	0.0	2.690923e+02	-2.393878e+01	0.0	2.740753e+02	-2.346203e+01	0.0	2.703020e+02	-2.594035e+01	0.0	2.620293e+02	-2.210887e+01	0.0	2.580253e+02	-2.289289e+01	0.0	2.544657e+02	-2.229317e+01	0.0	2.524494e+02	-2.245180e+01	0.0	2.504917e+02	-2.221281e+01	0.0	2.471185e+02	-2.207252e+01	0.0	2.443771e+02	-1.852673e+01	0.0	2.454275e+02	-1.228585e+01	0.0	2.480490e+02	-9.406477e+00	0.0	2.498246e+02	-9.528453e+00	0.0	2.504709e+02	-9.520198e+00	0.0	2.508032e+02	-9.521190e+00	0.0	2.512209e+02	-9.547673e+00	0.0	2.513191e+02	-9.555227e+00	0.0	2.513960e+02	-9.566018e+00	0.0	2.513878e+02	-9.566690e+00	0.0	2.512805e+02	-9.546578e+00	0.0	2.509178e+02	-9.530294e+00	0.0	2.505607e+02	-9.510507e+00	0.0	2.496753e+02	-9.485257e+00	0.0	2.489184e+02	-9.406745e+00	0.0	2.471791e+02	-9.360911e+00	0.0	2.443721e+02	-7.894590e+00	0.0	2.443523e+02	-2.737195e+00	0.0	2.470956e+02	9.874766e-01	0.0	2.489853e+02	9.304537e-01	0.0	2.499197e+02	9.718233e-01	0.0	2.508285e+02	9.764954e-01	0.0	2.514777e+02	9.711187e-01	0.0	2.519966e+02	9.774200e-01	0.0	2.523256e+02	9.835503e-01	0.0	2.525371e+02	9.730764e-01	0.0	2.527506e+02	9.797764e-01	0.0	2.528702e+02	9.755640e-01	0.0	2.529666e+02	9.890038e-01	0.0	2.526996e+02	9.932633e-01	0.0	2.523043e+02	9.947237e-01	0.0	2.517939e+02	1.022152e+00	0.0	2.495567e+02	9.079157e-01	0.0	2.486087e+02	4.630318e+00	0.0	2.508550e+02	8.805385e+00	0.0	2.528251e+02	9.206563e+00	0.0	2.540203e+02	9.313669e+00	0.0	2.549952e+02	9.360975e+00	0.0	2.557949e+02	9.387252e+00	0.0	2.563936e+02	9.410810e+00	0.0	2.568599e+02	9.419341e+00	0.0	2.575083e+02	9.453697e+00	0.0	2.579139e+02	9.455674e+00	0.0	2.583454e+02	9.477789e+00	0.0	2.586378e+02	9.494189e+00	0.0	2.587412e+02	9.495645e+00	0.0	2.588320e+02	9.496728e+00	0.0	2.588484e+02	9.511242e+00	0.0	2.579899e+02	9.420442e+00	0.0	2.573761e+02	1.132681e+01	0.0	2.585856e+02	1.419265e+01	0.0	2.601326e+02	1.508957e+01	0.0	2.613439e+02	1.514998e+01	0.0	2.622159e+02	1.521274e+01	0.0	2.630733e+02	1.527492e+01	0.0	2.637776e+02	1.530781e+01	0.0	2.643886e+02	1.535340e+01	0.0	2.649477e+02	1.537806e+01	0.0	2.655473e+02	1.541278e+01	0.0	2.662193e+02	1.543905e+01	0.0	2.668499e+02	1.548016e+01	0.0	2.674148e+02	1.551750e+01	0.0	2.679672e+02	1.555670e+01	0.0	2.684189e+02	1.558260e+01	0.0	2.689044e+02	1.561177e+01	0.0	2.692712e+02	1.581660e+01	0.0	2.699382e+02	1.607756e+01	0.0	2.705987e+02	1.612636e+01	0.0	2.712387e+02	1.615731e+01	0.0	2.719327e+02	1.620881e+01	0.0	2.724192e+02	1.623467e+01	0.0	2.729896e+02	1.626648e+01	0.0	2.737746e+02	1.630155e+01	0.0	2.745065e+02	1.634578e+01	0.0	2.752702e+02	1.640013e+01	0.0	2.759781e+02	1.642959e+01	0.0	2.768363e+02	1.649209e+01	0.0	2.777542e+02	1.654891e+01	0.0	2.785831e+02	1.659952e+01	0.0	2.803258e+02	1.675233e+01	0.0	2.818266e+02	1.452024e+01	0.0	2.816261e+02	1.161716e+01	0.0	2.811483e+02	1.099417e+01	0.0	2.811842e+02	1.099608e+01	0.0	2.813899e+02	1.097672e+01	0.0	2.816554e+02	1.098057e+01	0.0	2.821453e+02	1.101426e+01	0.0	2.826299e+02	1.102817e+01	0.0	2.832024e+02	1.105026e+01	0.0	2.838296e+02	1.108130e+01	0.0	2.845805e+02	1.110888e+01	0.0	2.855370e+02	1.115414e+01	0.0	2.865871e+02	1.121013e+01	0.0	2.890439e+02	1.134359e+01	0.0	2.916214e+02	7.950031e+00	0.0	2.907741e+02	1.441155e+00	0.0	2.896562e+02	-1.268709e+00	0.0	2.891594e+02	-9.283536e-01	0.0	2.887241e+02	-9.881179e-01	0.0	2.884167e+02	-1.049857e+00	0.0	2.884015e+02	-1.052806e+00	0.0	2.886230e+02	-1.050621e+00	0.0	2.888243e+02	-1.042732e+00	0.0	2.892380e+02	-1.024244e+00	0.0	2.897701e+02	-1.019492e+00	0.0	2.906709e+02	-1.076775e+00	0.0	2.924594e+02	-9.875216e-01	0.0	2.948780e+02	-3.461799e+00	0.0	2.938510e+02	-1.104710e+01	0.0	2.917277e+02	-1.584854e+01	0.0	2.913244e+02	-1.549336e+01	0.0	2.906555e+02	-1.537450e+01	0.0	2.902755e+02	-1.541311e+01	0.0	2.901254e+02	-1.543750e+01	0.0	2.900702e+02	-1.540859e+01	0.0	2.901746e+02	-1.539916e+01	0.0	2.903621e+02	-1.542613e+01	0.0	2.911499e+02	-1.549234e+01	0.0	2.923786e+02	-1.549600e+01	0.0	2.946618e+02	-1.726187e+01	0.0	2.931928e+02	-2.428936e+01	0.0	2.895163e+02	-2.960864e+01	0.0	2.892104e+02	-2.944172e+01	0.0	2.887747e+02	-2.922434e+01	0.0	2.882699e+02	-2.920520e+01	0.0	2.881199e+02	-2.921706e+01	0.0	2.879777e+02	-2.920061e+01	0.0	2.883062e+02	-2.917505e+01	0.0	2.886368e+02	-2.925301e+01	0.0	2.904187e+02	-2.935694e+01	0.0	2.919784e+02	-3.292280e+01	0.0	2.899041e+02	-4.020524e+01	0.0	2.871346e+02	-4.372128e+01	0.0	2.856040e+02	-4.301601e+01	0.0	2.846223e+02	-4.285179e+01	0.0	2.837754e+02	-4.277335e+01	0.0	2.833762e+02	-4.271591e+01	0.0	2.831113e+02	-4.267867e+01	0.0	2.835501e+02	-4.274475e+01	0.0	2.861725e+02	-4.348400e+01	0.0	2.847744e+02	-5.021846e+01	0.0	2.799598e+02	-5.587548e+01	0.0	2.777262e+02	-5.521544e+01	0.0	2.763857e+02	-5.483230e+01	0.0	2.752779e+02	-5.461537e+01	0.0	2.743470e+02	-5.442194e+01	0.0	2.736753e+02	-5.428087e+01	0.0	2.744402e+02	-5.431059e+01	0.0	2.732262e+02	-5.786729e+01	0.0	2.695852e+02	-6.142074e+01	0.0	2.671078e+02	-6.116726e+01	0.0	2.653338e+02	-6.070674e+01	0.0	2.638034e+02	-6.031922e+01	0.0	2.622822e+02	-5.997564e+01	0.0	2.610332e+02	-5.968538e+01	0.0	2.596374e+02	-5.976210e+01	0.0	2.580147e+02	-5.995035e+01	0.0	2.562569e+02	-5.972381e+01	0.0	2.547417e+02	-5.935703e+01	0.0	2.530825e+02	-5.897253e+01	0.0	2.512868e+02	-5.849988e+01	0.0	2.485739e+02	-5.766560e+01	0.0	2.473029e+02	-5.469976e+01	0.0	2.479537e+02	-5.239191e+01	0.0	2.476506e+02	-5.237786e+01	0.0	2.467340e+02	-5.218903e+01	0.0	2.456537e+02	-5.195620e+01	0.0	2.433251e+02	-5.151519e+01	0.0	2.424826e+02	-4.884020e+01	0.0	2.435293e+02	-4.650143e+01	0.0	2.439049e+02	-4.651122e+01	0.0	2.435277e+02	-4.639633e+01	0.0	2.426941e+02	-4.620905e+01	0.0	2.415239e+02	-4.561250e+01	0.0	2.413761e+02	-4.416351e+01	0.0	2.417217e+02	-4.324102e+01	0.0	2.416041e+02	-4.325060e+01	0.0	2.414149e+02	-4.320167e+01	0.0	2.408962e+02	-4.307068e+01	0.0	2.402898e+02	-4.279838e+01	0.0	2.400374e+02	-4.261223e+01	0.0	2.395714e+02	-4.253131e+01	0.0	2.391475e+02	-4.244239e+01	0.0	2.385091e+02	-4.278763e+01	0.0	2.377409e+02	-4.322366e+01	0.0	2.365899e+02	-4.316070e+01	0.0	2.359439e+02	-4.301254e+01	0.0	2.348478e+02	-4.342153e+01	0.0	2.333964e+02	-4.372487e+01	0.0	2.321917e+02	-4.348379e+01	0.0	2.307266e+02	-4.369386e+01	0.0	2.288594e+02	-4.385954e+01	0.0	2.267844e+02	-4.367368e+01	0.0	2.244674e+02	-4.371082e+01	0.0	2.213831e+02	-4.363145e+01	0.0	2.179103e+02	-4.325281e+01	0.0	2.121221e+02	-4.280269e+01	0.0	2.036287e+02	-4.157818e+01	0.0	1.923072e+02	-1.335767e+01	0.0	2.367450e+02	-1.104871e+01	0.0	2.311185e+02	-7.288124e+00	0.0	2.321106e+02	-5.552026e+00	0.0	2.311526e+02	-3.978791e+00	0.0	2.304581e+02	-2.439548e