# vtk DataFile Version 3.0
vtk output
ASCII
DATASET UNSTRUCTURED_GRID
POINTS 1833 double
1.000000e+02	0.000000e+00	0.0	9.917900e+01	1.278772e+01	0.0	9.672949e+01	2.536546e+01	0.0	9.269168e+01	3.752670e+01	0.0	8.713187e+01	4.907176e+01	0.0	8.014136e+01	5.981105e+01	0.0	7.183494e+01	6.956826e+01	0.0	6.234898e+01	7.818315e+01	0.0	5.183926e+01	8.551428e+01	0.0	4.047833e+01	9.144126e+01	0.0	2.845276e+01	9.586679e+01	0.0	1.595999e+01	9.871818e+01	0.0	3.205158e+00	9.994862e+01	0.0	-9.602303e+00	9.953791e+01	0.0	-2.225209e+01	9.749279e+01	0.0	-3.453651e+01	9.384684e+01	0.0	-4.625383e+01	8.865993e+01	0.0	-5.721167e+01	8.201723e+01	0.0	-6.723009e+01	7.402780e+01	0.0	-7.614460e+01	6.482284e+01	0.0	-8.380881e+01	5.455349e+01	0.0	-9.009689e+01	4.338837e+01	0.0	-9.490557e+01	3.151082e+01	0.0	-9.815592e+01	1.911586e+01	0.0	-9.979454e+01	6.407022e+00	0.0	-9.979454e+01	-6.407022e+00	0.0	-9.815592e+01	-1.911586e+01	0.0	-9.490557e+01	-3.151082e+01	0.0	-9.009689e+01	-4.338837e+01	0.0	-8.380881e+01	-5.455349e+01	0.0	-7.614460e+01	-6.482284e+01	0.0	-6.723009e+01	-7.402780e+01	0.0	-5.721167e+01	-8.201723e+01	0.0	-4.625383e+01	-8.865993e+01	0.0	-3.453651e+01	-9.384684e+01	0.0	-2.225209e+01	-9.749279e+01	0.0	-9.602303e+00	-9.953791e+01	0.0	3.205158e+00	-9.994862e+01	0.0	1.595999e+01	-9.871818e+01	0.0	2.845276e+01	-9.586679e+01	0.0	4.047833e+01	-9.144126e+01	0.0	5.183926e+01	-8.551428e+01	0.0	6.234898e+01	-7.818315e+01	0.0	7.183494e+01	-6.956826e+01	0.0	8.014136e+01	-5.981105e+01	0.0	8.713187e+01	-4.907176e+01	0.0	9.269168e+01	-3.752670e+01	0.0	9.672949e+01	-2.536546e+01	0.0	9.917900e+01	-1.278772e+01	0.0	0.000000e+00	0.000000e+00	0.0	3.444090e-03	3.624671e-03	0.0	7.144311e-03	7.237899e-03	0.0	1.150138e-02	1.038885e-02	0.0	1.609101e-02	1.353800e-02	0.0	2.114699e-02	1.632548e-02	0.0	2.642061e-02	1.913482e-02	0.0	3.210511e-02	2.158167e-02	0.0	3.801458e-02	2.404111e-02	0.0	4.427148e-02	2.620945e-02	0.0	5.076210e-02	2.838002e-02	0.0	5.752635e-02	3.044316e-02	0.0	6.451461e-02	3.256268e-02	0.0	7.173048e-02	3.473886e-02	0.0	7.915902e-02	3.703172e-02	0.0	8.682007e-02	3.938563e-02	0.0	9.477510e-02	4.160181e-02	0.0	1.030087e-01	4.371307e-02	0.0	1.115617e-01	4.556206e-02	0.0	1.204030e-01	4.721414e-02	0.0	1.295546e-01	4.855319e-02	0.0	1.389686e-01	4.979949e-02	0.0	1.486840e-01	5.061691e-02	0.0	1.586483e-01	5.145527e-02	0.0	1.688873e-01	5.182682e-02	0.0	1.793792e-01	5.210020e-02	0.0	1.901153e-01	5.218183e-02	0.0	2.010918e-01	5.181975e-02	0.0	2.123068e-01	5.144980e-02	0.0	2.237392e-01	5.074642e-02	0.0	2.353953e-01	4.992315e-02	0.0	2.472773e-01	4.912402e-02	0.0	2.593869e-01	4.847187e-02	0.0	2.717071e-01	4.780838e-02	0.0	2.842416e-01	4.769064e-02	0.0	2.969771e-01	4.786780e-02	0.0	3.098892e-01	4.820094e-02	0.0	3.229092e-01	4.964315e-02	0.0	3.360947e-01	5.110370e-02	0.0	3.493941e-01	5.289281e-02	0.0	3.628075e-01	5.492124e-02	0.0	3.763550e-01	5.694516e-02	0.0	3.900835e-01	5.851611e-02	0.0	4.039182e-01	6.009921e-02	0.0	4.178940e-01	6.089767e-02	0.0	4.319920e-01	6.100028e-02	0.0	4.461529e-01	6.104592e-02	0.0	4.602964e-01	5.961777e-02	0.0	4.744766e-01	5.818592e-02	0.0	4.886364e-01	5.640937e-02	0.0	5.027664e-01	5.433195e-02	0.0	5.168895e-01	5.225908e-02	0.0	5.310238e-01	5.042864e-02	0.0	5.451215e-01	4.860294e-02	0.0	5.592088e-01	4.718973e-02	0.0	5.732717e-01	4.619134e-02	0.0	5.872550e-01	4.519861e-02	0.0	6.011691e-01	4.464972e-02	0.0	6.149766e-01	4.410982e-02	0.0	6.286621e-01	4.352139e-02	0.0	6.422129e-01	4.288013e-02	0.0	6.556197e-01	4.224568e-02	0.0	6.688300e-01	4.103885e-02	0.0	6.818724e-01	3.981510e-02	0.0	6.947145e-01	3.839616e-02	0.0	7.073352e-01	3.668059e-02	0.0	7.197624e-01	3.499131e-02	0.0	7.319753e-01	3.323854e-02	0.0	7.439770e-01	3.149925e-02	0.0	7.557783e-01	2.990891e-02	0.0	7.673876e-01	2.857987e-02	0.0	7.787688e-01	2.727695e-02	0.0	7.899662e-01	2.656669e-02	0.0	8.009293e-01	2.591398e-02	0.0	8.116600e-01	2.548486e-02	0.0	8.221510e-01	2.517753e-02	0.0	8.323935e-01	2.483548e-02	0.0	8.423853e-01	2.444578e-02	0.0	8.521226e-01	2.398551e-02	0.0	8.615866e-01	2.316786e-02	0.0	8.708013e-01	2.237176e-02	0.0	8.797318e-01	2.127223e-02	0.0	8.884077e-01	2.013084e-02	0.0	8.968259e-01	1.893679e-02	0.0	9.049783e-01	1.762068e-02	0.0	9.128907e-01	1.634332e-02	0.0	9.205501e-01	1.501185e-02	0.0	9.279725e-01	1.370316e-02	0.0	9.351616e-01	1.242079e-02	0.0	9.421192e-01	1.115443e-02	0.0	9.488534e-01	9.928116e-03	0.0	9.553627e-01	8.711877e-03	0.0	9.616570e-01	7.535822e-03	0.0	9.677363e-01	6.377420e-03	0.0	9.736088e-01	5.254560e-03	0.0	9.792758e-01	4.150886e-03	0.0	9.847444e-01	3.078080e-03	0.0	9.900182e-01	2.029344e-03	0.0	9.951013e-01	1.001042e-03	0.0	1.000000e+00	0.000000e+00	0.0	9.950044e-01	2.049046e-04	0.0	9.898196e-01	4.130271e-04	0.0	9.844389e-01	5.700923e-04	0.0	9.788579e-01	6.800562e-04	0.0	9.730723e-01	7.641616e-04	0.0	9.670769e-01	7.869522e-04	0.0	9.608677e-01	7.858625e-04	0.0	9.544401e-01	7.176037e-04	0.0	9.477895e-01	6.321729e-04	0.0	9.409130e-01	4.504815e-04	0.0	9.338046e-01	2.626649e-04	0.0	9.264641e-01	-3.574251e-05	0.0	9.188849e-01	-3.659028e-04	0.0	9.110667e-01	-7.785237e-04	0.0	9.030086e-01	-1.316769e-03	0.0	8.947019e-01	-1.871624e-03	0.0	8.861656e-01	-2.701677e-03	0.0	8.773789e-01	-3.582697e-03	0.0	8.683604e-01	-4.671966e-03	0.0	8.591145e-01	-6.015250e-03	0.0	8.496212e-01	-7.438148e-03	0.0	8.399540e-01	-9.368501e-03	0.0	8.300346e-01	-1.134923e-02	0.0	8.199506e-01	-1.376747e-02	0.0	8.096403e-01	-1.634028e-02	0.0	7.991401e-01	-1.917978e-02	0.0	7.884481e-01	-2.226777e-02	0.0	7.775330e-01	-2.546940e-02	0.0	7.664459e-01	-2.894033e-02	0.0	7.551324e-01	-3.248218e-02	0.0	7.435638e-01	-3.598241e-02	0.0	7.317655e-01	-3.950280e-02	0.0	7.197294e-01	-4.297890e-02	0.0	7.073367e-01	-4.593950e-02	0.0	6.947474e-01	-4.894709e-02	0.0	6.818302e-01	-5.125702e-02	0.0	6.686380e-01	-5.309661e-02	0.0	6.552656e-01	-5.485883e-02	0.0	6.416239e-01	-5.543830e-02	0.0	6.278326e-01	-5.602412e-02	0.0	6.138975e-01	-5.638242e-02	0.0	5.998335e-01	-5.658309e-02	0.0	5.856611e-01	-5.685994e-02	0.0	5.714106e-01	-5.767277e-02	0.0	5.570774e-01	-5.849033e-02	0.0	5.427687e-01	-6.020081e-02	0.0	5.284549e-01	-6.237718e-02	0.0	5.141286e-01	-6.470006e-02	0.0	4.998952e-01	-6.766854e-02	0.0	4.856542e-01	-7.063860e-02	0.0	4.713984e-01	-7.349671e-02	0.0	4.571548e-01	-7.629853e-02	0.0	4.429162e-01	-7.888593e-02	0.0	4.285905e-01	-8.057412e-02	0.0	4.143326e-01	-8.225431e-02	0.0	4.000887e-01	-8.295239e-02	0.0	3.859160e-01	-8.327761e-02	0.0	3.718553e-01	-8.338717e-02	0.0	3.579217e-01	-8.293099e-02	0.0	3.441254e-01	-8.247930e-02	0.0	3.304840e-01	-8.189572e-02	0.0	3.170052e-01	-8.128812e-02	0.0	3.036954e-01	-8.078730e-02	0.0	2.905624e-01	-8.047785e-02	0.0	2.776224e-01	-8.017294e-02	0.0	2.648818e-01	-8.005593e-02	0.0	2.523515e-01	-7.996682e-02	0.0	2.400395e-01	-7.988920e-02	0.0	2.279529e-01	-7.982802e-02	0.0	2.160980e-01	-7.976802e-02	0.0	2.044825e-01	-7.954992e-02	0.0	1.931094e-01	-7.932126e-02	0.0	1.819915e-01	-7.888673e-02	0.0	1.711350e-01	-7.818529e-02	0.0	1.605306e-01	-7.750014e-02	0.0	1.502714e-01	-7.598955e-02	0.0	1.402705e-01	-7.447303e-02	0.0	1.306558e-01	-7.239794e-02	0.0	1.214408e-01	-6.970505e-02	0.0	1.124729e-01	-6.708437e-02	0.0	1.041976e-01	-6.334550e-02	0.0	9.618175e-02	-5.964021e-02	0.0	8.852040e-02	-5.580365e-02	0.0	8.133271e-02	-5.160289e-02	0.0	7.436019e-02	-4.752790e-02	0.0	6.769474e-02	-4.342195e-02	0.0	6.127969e-02	-3.937213e-02	0.0	5.504755e-02	-3.548289e-02	0.0	4.889928e-02	-3.191042e-02	0.0	4.295153e-02	-2.845446e-02	0.0	3.705186e-02	-2.538488e-02	0.0	3.133434e-02	-2.244735e-02	0.0	2.577911e-02	-1.967335e-02	0.0	2.045557e-02	-1.691983e-02	0.0	1.543596e-02	-1.404148e-02	0.0	1.079628e-02	-1.095054e-02	0.0	6.483383e-03	-7.737172e-03	0.0	2.724098e-03	-4.160434e-03	0.0	6.396169e-01	-8.265246e-02	0.0	6.426660e-01	-7.039481e-02	0.0	6.317280e-01	-6.931644e-02	0.0	8.752449e+01	1.849395e+01	0.0	7.261886e+01	-1.443595e+01	0.0	8.561876e+01	-1.515998e+01	0.0	7.568013e+01	-7.815781e+00	0.0	9.264357e+01	-7.490934e+00	0.0	3.980420e+01	2.162749e+01	0.0	4.982467e+01	3.080257e+01	0.0	3.774501e+01	3.671756e+01	0.0	8.174407e+01	3.541315e+01	0.0	7.288734e+01	3.286147e+01	0.0	7.691950e+01	2.435629e+01	0.0	6.795900e+01	-3.579229e+01	0.0	7.516331e+01	-4.381709e+01	0.0	8.073734e+01	-3.619438e+01	0.0	8.625310e+01	-2.761582e+01	0.0	5.950228e+01	3.146690e+01	0.0	5.775005e+01	3.918510e+01	0.0	5.665493e+01	-6.354523e+01	0.0	5.555603e+01	-5.351005e+01	0.0	4.850486e+01	-6.427013e+01	0.0	6.816448e+01	5.983406e+01	0.0	7.207126e+01	5.092672e+01	0.0	5.753754e+01	6.577382e+01	0.0	4.575465e+01	-7.390763e+01	0.0	5.448972e+01	-7.218129e+01	0.0	6.595897e+01	-4.635389e+01	0.0	5.099839e+01	7.526745e+01	0.0	3.573671e+01	7.145540e+01	0.0	2.808124e+01	7.404105e+01	0.0	3.209171e+01	6.546893e+01	0.0	6.285493e+01	-6.721891e+01	0.0	3.944504e+01	7.863551e+01	0.0	2.550682e+01	8.633125e+01	0.0	3.687030e+01	-6.757462e+01	0.0	2.852122e+01	-7.626058e+01	0.0	3.907610e+01	-8.009480e+01	0.0	-2.209547e+00	4.579348e+01	0.0	-1.671774e+00	5.550963e+01	0.0	-1.181669e+01	5.059903e+01	0.0	9.867774e+00	8.956621e+01	0.0	1.428104e+01	7.675386e+01	0.0	1.458378e+01	4.405834e+01	0.0	5.634923e+00	4.015702e+01	0.0	1.250089e+01	3.323665e+01	0.0	4.755284e+00	-2.280754e+00	0.0	4.861407e+00	-3.379422e-01	0.0	3.704318e+00	-1.113349e+00	0.0	1.824047e+00	-6.299651e-01	0.0	2.203556e+00	-4.582588e-01	0.0	1.872911e+00	-1.931709e-01	0.0	1.769084e+00	8.717494e-01	0.0	1.785412e+00	1.452434e+00	0.0	1.363301e+00	1.057486e+00	0.0	1.244387e+00	7.368648e-01	0.0	1.461821e+00	6.610775e-01	0.0	9.971620e-01	-4.337450e-03	0.0	1.001653e+00	-6.392435e-03	0.0	1.002319e+00	-2.131027e-03	0.0	1.035456e+00	2.729884e-02	0.0	1.022671e+00	2.467531e-02	0.0	1.030701e+00	1.601922e-02	0.0	9.942512e-01	9.365232e-03	0.0	9.980444e-01	4.518279e-03	0.0	9.995836e-01	8.953364e-03	0.0	9.932491e-01	4.630896e-03	0.0	9.835738e-01	7.843351e-03	0.0	9.781970e-01	9.710261e-03	0.0	9.989606e-01	1.344132e-02	0.0	9.889006e-01	6.491331e-03	0.0	9.711661e-01	2.002279e-02	0.0	9.638436e-01	1.873175e-02	0.0	9.681996e-01	1.430755e-02	0.0	9.712349e-01	9.962317e-03	0.0	9.747169e-01	1.495968e-02	0.0	9.619448e-01	1.244151e-
[...]
POINT_DATA 1833

SCALARS Density double 1
LOOKUP_TABLE default
1.291768e+00	1.291803e+00	1.292073e+00	1.292201e+00	1.292148e+00	1.292098e+00	1.292064e+00	1.292025e+00	1.291978e+00	1.291935e+00	1.291902e+00	1.291887e+00	1.291894e+00	1.291934e+00	1.291998e+00	1.292061e+00	1.292122e+00	1.292165e+00	1.292201e+00	1.292227e+00	1.292245e+00	1.292260e+00	1.292270e+00	1.292280e+00	1.292287e+00	1.292295e+00	1.292303e+00	1.292313e+00	1.292326e+00	1.292341e+00	1.292362e+00	1.292388e+00	1.292423e+00	1.292465e+00	1.292516e+00	1.292573e+00	1.292632e+00	1.292677e+00	1.292685e+00	1.292665e+00	1.292625e+00	1.292571e+00	1.292518e+00	1.292464e+00	1.292411e+00	1.292373e+00	1.292374e+00	1.292287e+00	1.292013e+00	1.478852e+00	1.154945e+00	1.196694e+00	1.169019e+00	1.130364e+00	1.098319e+00	1.068935e+00	1.041586e+00	1.037176e+00	1.039932e+00	1.067410e+00	1.089246e+00	1.108121e+00	1.107578e+00	1.090024e+00	1.044623e+00	9.914105e-01	9.388565e-01	8.866587e-01	8.406108e-01	8.079461e-01	7.721880e-01	7.460637e-01	7.211979e-01	6.929297e-01	6.811274e-01	6.521586e-01	6.303574e-01	6.190469e-01	6.038769e-01	5.968021e-01	6.177509e-01	6.516392e-01	8.630343e-01	1.165028e+00	1.227910e+00	1.234227e+00	1.219534e+00	1.184651e+00	1.164669e+00	1.127875e+00	1.071475e+00	1.022233e+00	9.616757e-01	8.856135e-01	8.477037e-01	7.681357e-01	7.040174e-01	7.068284e-01	7.887835e-01	1.013906e+00	1.142209e+00	1.156493e+00	1.165296e+00	1.179359e+00	1.173970e+00	1.169658e+00	1.164386e+00	1.147460e+00	1.136252e+00	1.130158e+00	1.115838e+00	1.115735e+00	1.131870e+00	1.137983e+00	1.155801e+00	1.176041e+00	1.189629e+00	1.206166e+00	1.221129e+00	1.226758e+00	1.235881e+00	1.236519e+00	1.224830e+00	1.219583e+00	1.206040e+00	1.192085e+00	1.182783e+00	1.168768e+00	1.168289e+00	1.172492e+00	1.175436e+00	1.189156e+00	1.195040e+00	1.205336e+00	1.216066e+00	1.223804e+00	1.234026e+00	1.241185e+00	1.248579e+00	1.255223e+00	1.262005e+00	1.268730e+00	1.275510e+00	1.282187e+00	1.290258e+00	1.297483e+00	1.312599e+00	1.309790e+00	1.332181e+00	1.449195e+00	1.394590e+00	1.406758e+00	1.410748e+00	1.409952e+00	1.412760e+00	1.414094e+00	1.416561e+00	1.417832e+00	1.419957e+00	1.422302e+00	1.423062e+00	1.427225e+00	1.426975e+00	1.432700e+00	1.434710e+00	1.434339e+00	1.439539e+00	1.435540e+00	1.440012e+00	1.436325e+00	1.431711e+00	1.427649e+00	1.416382e+00	1.408583e+00	1.393590e+00	1.380045e+00	1.362650e+00	1.335400e+00	1.311080e+00	1.283733e+00	1.240132e+00	1.209440e+00	1.163590e+00	1.120333e+00	1.111398e+00	1.084666e+00	1.106950e+00	1.166059e+00	1.195588e+00	1.236865e+00	1.278820e+00	1.298122e+00	1.320671e+00	1.337521e+00	1.323272e+00	1.318506e+00	1.299159e+00	1.259820e+00	1.229112e+00	1.192685e+00	1.079982e+00	9.413444e-01	8.811744e-01	8.947205e-01	9.602382e-01	1.002254e+00	1.056187e+00	1.105377e+00	1.135273e+00	1.167808e+00	1.192988e+00	1.201851e+00	1.207295e+00	1.208364e+00	1.198314e+00	1.190789e+00	1.178131e+00	1.158420e+00	1.142191e+00	1.122253e+00	1.087587e+00	1.031452e+00	9.443956e-01	9.278322e-01	9.441473e-01	9.654186e-01	1.025971e+00	1.046226e+00	1.120045e+00	1.222262e+00	1.255876e+00	1.313870e+00	1.368895e+00	1.404233e+00	1.442930e+00	1.477111e+00	1.497803e+00	1.517852e+00	1.533479e+00	1.541325e+00	1.552330e+00	1.559628e+00	1.573682e+00	1.591375e+00	1.615632e+00	1.627067e+00	1.674905e+00	1.201100e+00	1.180762e+00	1.203042e+00	1.292001e+00	1.292206e+00	1.292164e+00	1.292079e+00	1.291966e+00	1.292062e+00	1.292029e+00	1.291932e+00	1.292150e+00	1.292152e+00	1.292095e+00	1.292389e+00	1.292381e+00	1.292348e+00	1.292322e+00	1.292090e+00	1.292058e+00	1.292508e+00	1.292483e+00	1.292555e+00	1.292059e+00	1.292081e+00	1.292010e+00	1.292582e+00	1.292537e+00	1.292413e+00	1.291977e+00	1.291894e+00	1.291846e+00	1.291860e+00	1.292490e+00	1.291917e+00	1.291875e+00	1.292630e+00	1.292678e+00	1.292626e+00	1.291475e+00	1.291606e+00	1.291656e+00	1.291855e+00	1.291807e+00	1.291554e+00	1.291353e+00	1.291350e+00	1.295336e+00	1.290098e+00	1.295368e+00	1.305358e+00	1.297933e+00	1.296713e+00	1.291562e+00	1.285806e+00	1.280790e+00	1.284812e+00	1.292692e+00	1.418816e+00	1.391918e+00	1.345786e+00	1.302003e+00	1.313196e+00	1.304022e+00	1.311474e+00	1.328426e+00	1.315625e+00	1.316467e+00	1.297506e+00	1.289730e+00	1.315140e+00	1.304944e+00	1.282775e+00	1.274574e+00	1.278405e+00	1.280944e+00	1.286144e+00	1.270780e+00	1.266364e+00	1.257041e+00	1.263716e+00	1.267322e+00	1.298210e+00	1.283353e+00	1.277747e+00	1.371466e+00	1.378675e+00	1.394943e+00	1.059133e+00	1.036109e+00	1.000166e+00	1.074805e+00	1.156083e+00	1.273734e+00	1.258355e+00	1.228319e+00	1.415100e+00	1.420233e+00	1.413735e+00	1.308577e+00	1.329508e+00	9.538508e-01	1.043414e+00	9.840317e-01	1.109557e+00	1.172108e+00	1.139128e+00	8.543104e-01	8.474089e-01	1.105739e+00	1.146599e+00	1.060525e+00	8.933386e-01	1.205482e+00	1.173726e+00	1.159264e+00	9.609182e-01	1.064128e+00	1.030355e+00	1.171782e+00	1.133019e+00	1.061071e+00	1.135571e+00	1.195458e+00	8.991088e-01	1.242541e+00	1.269582e+00	1.263016e+00	1.208450e+00	1.061281e+00	7.730461e-01	6.765619e-01	6.284775e-01	1.299046e+00	1.308106e+00	1.311244e+00	1.017465e+00	1.136584e+00	1.142786e+00	6.101598e-01	6.000627e-01	9.337156e-01	9.330848e-01	1.202126e+00	1.224428e+00	1.299795e+00	9.905295e-01	9.640170e-01	1.010819e+00	1.051144e+00	1.063439e+00	1.235476e+00	1.200311e+00	1.250655e+00	1.000584e+00	1.024319e+00	1.320232e+00	1.257641e+00	1.274246e+00	1.269033e+00	9.496816e-01	9.208685e-01	1.192373e+00	1.171964e+00	1.179182e+00	1.169314e+00	1.162091e+00	1.188837e+00	1.179810e+00	1.175875e+00	1.149507e+00	1.145981e+00	1.136874e+00	1.154799e+00	1.213859e+00	1.184068e+00	1.210286e+00	1.154750e+00	1.136789e+00	1.145725e+00	1.194911e+00	1.197650e+00	1.209056e+00	1.183527e+00	1.167474e+00	1.174669e+00	1.231000e+00	1.222285e+00	1.215374e+00	1.167650e+00	1.169424e+00	1.171709e+00	1.167322e+00	1.174044e+00	1.162400e+00	1.040741e+00	1.001483e+00	1.087233e+00	1.122343e+00	1.414811e+00	1.410842e+00	1.411705e+00	1.417719e+00	1.220873e+00	1.225066e+00	1.218446e+00	1.191707e+00	1.212230e+00	1.221167e+00	1.229401e+00	1.180956e+00	1.187143e+00	1.198091e+00	1.210526e+00	1.211016e+00	1.222393e+00	1.213541e+00	1.210213e+00	1.205223e+00	1.197783e+00	1.216646e+00	1.397077e+00	1.404778e+00	1.391550e+00	1.391491e+00	1.223785e+00	1.219058e+00	1.205604e+00	1.228742e+00	1.222250e+00	1.218999e+00	1.209462e+00	1.218400e+00	1.420939e+00	1.420957e+00	1.404913e+00	1.407396e+00	1.160553e+00	1.167265e+00	1.153229e+00	1.119366e+00	1.139058e+00	1.103342e+00	1.141803e+00	1.425367e+00	1.072970e+00	1.039271e+00	1.061431e+00	1.003245e+00	9.922164e-01	9.631964e-01	1.191687e+00	1.181345e+00	1.186434e+00	1.433708e+00	1.429805e+00	1.431229e+00	1.487987e+00	1.534617e+00	1.591662e+00	1.489231e+00	1.520336e+00	1.514014e+00	1.509130e+00	1.486768e+00	1.472055e+00	1.484573e+00	1.544889e+00	1.428507e+00	1.460804e+00	1.444489e+00	1.232708e+00	1.292698e+00	1.383065e+00	1.359956e+00	1.361934e+00	1.604724e+00	1.580131e+00	1.585666e+00	1.558816e+00	1.376367e+00	1.357628e+00	1.371975e+00	1.399749e+00	1.407047e+00	1.326546e+00	1.305298e+00	1.340149e+00	1.353179e+00	1.202311e+00	1.196802e+00	1.265876e+00	1.207994e+00	1.410401e+00	1.419601e+00	1.293066e+00	1.292218e+00	1.269853e+00	1.274308e+00	1.268431e+00	1.244267e+00	1.415290e+00	1.412974e+00	1.429292e+00	1.426016e+00	1.339715e+00	1.328343e+00	1.336218e+00	1.244408e+00	1.424267e+00	1.426359e+00	1.434426e+00	1.428102e+00	1.425933e+00	1.155516e+00	1.165861e+00	1.137366e+00	1.418078e+00	1.419687e+00	1.410808e+00	1.413516e+00	1.414001e+00	1.280010e+00	1.315050e+00	1.295808e+00	1.302015e+00	1.150073e+00	1.179751e+00	1.241010e+00	1.245614e+00	1.247630e+00	1.260489e+00	1.251799e+00	1.248479e+00	1.240399e+00	1.249548e+00	1.225329e+00	1.224648e+00	1.228049e+00	1.223789e+00	1.291023e+00	1.108195e+00	1.016178e+00	1.291983e+00	1.291904e+00	7.464568e-01	6.125441e-01	8.656882e-01	8.165551e-01	9.224551e-01	1.174206e+00	1.260425e+00	1.217698e+00	1.291922e+00	6.475410e-01	6.889020e-01	6.597180e-01	8.605753e-01	1.287722e+00	1.289633e+00	1.289701e+00	6.913939e-01	7.044320e-01	1.292026e+00	1.283457e+00	1.269428e+00	1.279285e+00	9.768179e-01	9.525641e-01	1.031429e+00	1.082051e+00	1.212722e+00	1.206211e+00	1.270154e+00	1.012073e+00	1.077035e+00	1.092477e+00	1.292084e+00	1.131962e+00	1.138528e+00	1.130276e+00	1.291746e+00	1.291464e+00	1.291475e+00	1.292197e+00	1.291872e+00	1.292128e+00	1.291619e+00	1.099664e+00	1.094180e+00	1.118134e+00	1.292233e+00	1.292373e+00	1.126858e+00	1.292182e+00	1.292217e+00	1.292192e+00	1.120419e+00	1.146253e+00	1.155341e+00	1.292273e+00	1.292255e+00	1.292266e+00	1.292224e+00	1.292236e+00	1.292297e+00	1.292309e+00	1.292317e+00	1.292328e+00	1.292411e+00	1.292354e+00	1.292366e+00	1.292412e+00	1.292457e+00	1.292353e+00	1.292335e+00	1.292374e+00	1.292401e+00	1.292308e+00	1.292378e+00	1.292407e+00	1.292463e+00	1.292464e+00	1.309914e+00	1.306064e+00	1.316164e+00	1.295007e+00	1.296785e+00	1.296409e+00	1.292515e+00	1.292570e+00	1.298518e+00	1.298781e+00	1.301465e+00	1.293176e+00	1.292931e+00	1.293103e+00	1.307183e+00	1.296456e+00	1.301877e+00	1.511682e+00	1.498701e+00	1.292647e+00	1.292553e+00	1.292595e+00	1.292774e+00	1.292715e+00	1.292749e+00	1.451652e+00	1.427502e+00	1.451767e+00	1.352995e+00	1.286893e+00	1.311207e+00	1.292681e+00	1.292689e+00	1.292636e+00	1.295420e+00	1.393696e+00	1.396905e+00	1.422809e+00	1.246683e+00	1.176005e+00	1.177485e+00	1.234621e+00	1.292953e+00	1.292981e+00	1.292850e+00	1.054822e+00	1.028171e+00	1.064189e+00	1.045945e+00	1.174555e+00	1.147977e+00	1.162071e+00	1.177708e+00	1.227947e+00	1.187988e+00	1.215747e+00	1.224108e+00	1.177809e+00	1.193736e+00	1.186745e+00	1.292662e+00	1.292702e+00	1.065441e+00	1.295070e+00	1.282247e+00	1.255330e+00	1.302347e+00	1.298989e+00	1.292288e+00	1.292534e+00	1.291940e+00	1.291735e+00	8.188864e-01	8.436981e-01	8.693324e-01	1.292809e+00	1.292686e+00	1.293218e+00	1.407717e+00	1.292765e+00	1.292593e+00	1.292489e+00	1.292451e+00	1.292528e+00	1.292504e+00	1.292594e+00	1.292517e+00	1.291938e+00	1.291911e+00	1.291942e+00	1.291850e+00	1.291988e+00	1.292446e+00	1.292404e+00	1.292442e+00	1.292007e+00	1.292138e+00	1.292095e+00	1.292626e+00	1.292800e+00	1.292624e+00	1.292129e+00	1.292208e+00	1.292208e+00	1.286115e+00	1.285080e+00	1.292209e+00	1.292245e+00	1.293426e+00	1.293105e+00	1.292947e+00	1.551877e+00	1.545888e+00	1.540276e+00	1.291682e+00	1.291506e+00	1.291901e+00	1.292105e+00	1.290892e+00	1.290356e+00	1.290239e+00	1.289264e+00	1.293095e+00	1.293795e+00	1.292497e+00	1.292344e+00	1.292524e+00	1.292758e+00	1.292607e+00	1.292734e+00	1.292504e+00	1.292309e+00	1.292332e+00	1.292303e+00	1.292261e+00	1.292185e+00	1.291871e+00	1.291807e+00	1.292733e+00	1.292110e+00	1.292078e+00	1.292022e+00	1.291948e+00	1.292002e+00	1.291996e+00	1.291994e+00	1.291949e+00	1.292329e+00	1.292280e+00	1.292375e+00	1.292581e+00	1.292622e+00	1.292675e+00	1.292714e+00	1.292382e+00	1.292421e+00	1.291895e+00	1.291989e+00	1.292049e+00	1.292385e+00	1.292254e+00	1.292899e+00	1.292751e+00	1.292896e+00	1.155415e+00	1.125019e+00	1.120166e+00	1.117179e+00	1.290989e+00	1.293000e+00	1.293783e+00	1.293290e+00	1.292787e+00	1.291836e+00	1.291711e+00	1.292581e+00	1.292820e+00	1.292906e+00	1.292789e+00	1.291600e+00	1.291918e+00	1.292013e+00	1.291939e+00	1.292153e+00	1.292104e+00	1.292313e+00	1.292291e+00	1.292313e+00	1.292520e+00	1.292049e+00	1.292184e+00	1.293052e+00	1.293093e+00	1.293984e+00	1.291852e+00	1.292879e+00	1.293801e+00	1.294450e+00	1.294366e+00	1.292138e+00	1.292242e+00	1.290909e+00	8.834137e-01	9.563164e-01	1.292507e+00	1.291838e+00	1.291822e+00	1.292272e+00	1.292111e+00	1.292356e+00	1.292289e+00	1.292324e+00	1.292089e+00	1.292154e+00	1.292787e+00	1.292836e+00	1.292712e+00	1.292757e+00	1.292660e+00	1.292680e+00	1.292651e+00	1.292119e+00	1.291986e+00	1.292050e+00	1.292391e+00	1.292432e+00	1.292473e+00	1.291780e+00	1.291680e+00	1.291785e+00	1.291725e+00	1.292707e+00	1.291935e+00	1.293059e+00	1.292586e+00	1.292467e+00	1.291278e+00	1.293577e+00	1.070329e+00	1.292449e+00	1.291994e+00	1.291982e+00	1.292484e+00	1.292055e+00	1.292091e+00	1.291543e+00	1.291644e+00	1.292723e+00	1.292028e+00	1.291934e+00	1.291745e+00	1.292779e+00	1.291966e+00	1.291893e+00	1.291797e+00	1.291733e+00	1.292098e+00	1.292382e+00	1.292050e+00	1.291708e+00	1.291762e+00	1.292503e+00	1.292466e+00	1.292518e+00	1.291842e+00	1.286778e+00	1.291840e+00	1.293421e+00	1.294890e+00	1.293968e+00	1.291715e+00	1.291673e+00	1.293327e+00	1.292471e+00	1.293282e+00	1.294106e+00	1.289860e+00	1.291633e+00	1.291546e+00	1.291702e+00	1.293921e+00	1.294609e+00	1.294894e+00	1.296091e+00	1.295515e+00	1.289125e+00	1.291016e+00	1.291246e+00	1.291514e+00	1.293949e+00	1.290859e+00	1.298193e+00	1.296527e+00	1.296332e+00	1.293014e+00	1.287020e+00	1.071835e+00	1.295274e+00	1.295987e+00	1.295267e+00	1.291428e+00	1.290323e+00	1.291030e+00	1.294479e+00	1.271156e+00	1.348535e+00	1.318938e+00	1.388280e+00	1.385448e+00	1.379775e+00	1.283462e+00	1.285199e+00	1.285274e+00	1.288030e+00	1.288615e+00	7.311923e-01	1.290659e+00	1.291761e+00	1.290617e+00	1.292325e+00	1.287200e+00	1.289891e+00	1.290492e+00	1.289843e+00	1.291307e+00	1.330051e+00	1.297085e+00	1.220187e+00	1.297189e+00	1.288853e+00	1.284189e+00	1.279530e+00	1.288633e+00	1.296232e+00	1.294315e+00	1.291950e+00	1.289265e+00	1.291409e+00	1.267202e+00	1.276759e+00	1.298073e+00	1.283046e+00	1.278097e+00	1.295255e+00	1.296647e+00	1.293044e+00	1.288083e+00	1.299294e+00	1.300025e+00	1.300304e+00	1.296818e+00	1.293571e+00	1.313603e+00	1.304108e+00	1.302328e+00	1.298675e+00	1.290141e+00	1.287584e+00	1.400866e+00	1.410773e+00	1.401257e+00	1.230413e+00	1.301255e+00	1.299834e+00	1.275749e+00	1.255293e+00	1.298333e+00	1.294933e+00	8.937152e-01	1.298221e+00	1.297550e+00	1.293397e+00	1.288307e+00	1.295620e+00	1.262019e+00	1.317791e+00	1.311532e+00	1.301415e+00	1.300994e+00	1.291900e+00	1.524272e+00	1.513410e+00	1.305939e+00	1.219594e+00	1.167270e+00	1.220231e+00	1.301166e+00	1.297896e+00	1.303342e+00	1.301772e+00	1.304793e+00	1.291448e+00	1.297233e+00	1.272309e+00	1.081806e+00	1.116604e+00	1.292688e+00	1.270475e+00	1.321502e+00	1.260385e+00	1.115172e+00	1.312078e+00	1.292127e+00	1.322764e+00	1.329991e+00	1.367656e+00	1.405747e+00	1.354535e+00	1.307795e+00	1.411692e+00	1.409554e+00	1.411134e+00	1.321572e+00	1.323488e+00	1.340831e+00	1.300376e+00	1.336452e+00	1.319415e+00	1.280864e+00	1.283095e+00	1.200565e+00	1.183257e+00	1.313957e+00	1.224890e+00	1.217145e+00	1.215999e+00	7.172690e-01	7.423557e-01	6.833782e-01	1.227156e+00	1.312331e+00	1.306528e+00	1.354136e+00	1.372243e+00	1.377805e+00	1.560531e+00	1.595586e+00	1.575031e+00	1.283625e+00	1.256338e+00	1.276700e+00	1.249949e+00	1.294842e+00	1.299345e+00	1.285395e+00	1.314549e+00	1.331998e+00	1.267614e+00	1.160090e+00	1.120527e+00	6.366174e-01	6.296239e-01	9.341676e-01	8.746519e-01	8.969734e-01	1.347273e+00	1.370075e+00	1.393351e+00	1.304984e+00	1.304705e+00	1.308378e+00	1.304570e+00	1.285214e+00	1.317392e+00	1.308299e+00	1.330167e+00	1.323157e+00	1.420294e+00	1.422781e+00	1.293461e+00	1.081092e+00	1.141466e+00	1.189549e+00	1.174067e+00	1.173105e+00	1.186952e+00	1.327277e+00	1.297238e+00	1.337146e+00	1.313687e+00	1.266245e+00	1.125365e+00	1.110561e+00	1.283227e+00	1.295826e+00	1.291388e+00	1.290937e+00	1.318716e+00	1.277497e+00	1.257599e+00	1.255768e+00	1.279312e+00	1.263368e+00	1.273477e+00	1.208751e+00	1.274217e+00	1.288770e+00	1.321116e+00	1.318915e+00	1.461500e+00	1.483860e+00	1.477196e+00	1.347602e+00	1.327042e+00	1.336186e+00	1.318697e+00	1.332419e+00	1.344855e+00	1.300371e+00	1.306920e+00	1.233263e+00	1.224084e+00	1.090735e+00	1.114290e+00	1.277527e+00	1.293706e+00	1.257897e+00	1.196852e+00	1.183221e+00	1.192990e+00	1.236966e+00	1.303211e+00	1.259902e+00	1.257156e+00	1.278085e+00	1.319157e+00	1.234984e+00	1.293433e+00	1.333126e+00	1.441974e+00	1.456945e+00	1.479226e+00	8.887797e-01	1.007974e+00	9.972532e-01	1.035680e+00	9.890050e-01	1.024450e+00	1.381224e+00	1.048934e+00	1.340380e+00	1.251778e+00	1.241987e+00	1.225999e+00	1.339870e+00	1.342015e+00	1.357345e+00	1.342950e+00	1.368092e+00	1.347918e+00	1.126717e+00	1.062478e+00	1.285281e+00	1.004567e+00	9.532900e-01	1.296578e+00	1.299305e+00	1.261456e+00	1.261635e+00	1.355176e+00	1.344885e+00	7.408385e-01	1.202791e+00	1.566818e+00	1.334847e+00	1.322311e+00	1.252891e+00	1.267576e+00	1.185776e+00	1.189799e+00	1.180238e+00	1.329362e+00	1.371316e+00	1.415056e+00	1.391792e+00	1.394970e+00	1.318102e+00	9.893969e-01	1.132363e+00	1.138169e+00	7.254008e-01	1.199605e+00	1.202701e+00	1.152230e+00	1.100815e+00	1.136645e+00	1.307039e+00	1.306404e+00	1.308691e+00	1.304880e+00	1.355934e+00	1.141263e+00	1.038978e+00	1.314107e+00	1.220317e+00	1.351905e+00	1.256078e+00	1.245894e+00	1.232872e+00	1.184709e+00	9.900271e-01	1.302484e+00	1.370919e+00	1.365421e+00	1.359413e+00	1.083389e+00	9.169617e-01	1.111753e+00	1.421552e+00	1.393170e+00	1.491722e+00	1.406642e+00	1.373281e+00	1.387270e+00	1.370577e+00	1.379787e+00	1.201235e+00	1.173662e+00	1.163415e+00	1.143166e+00	1.306466e+00	1.341152e+00	1.186835e+00	1.176173e+00	1.110791e+00	1.240556e+00	1.232218e+00	1.200957e+00	1.200698e+00	1.306680e+00	1.205168e+00	1.193455e+00	1.205782e+00	1.320558e+00	1.287566e+00	1.371898e+00	1.193448e+00	1.240543e+00	1.245258e+00	1.259966e+00	1.261426e+00	1.254601e+00	1.393745e+00	1.165563e+00	1.132909e+00	1.255535e+00	1.211466e+00	6.634849e-01	1.156885e+00	1.181553e+00	1.374691e+00	1.368533e+00	1.297214e+00	1.302958e+00	1.236829e+00	1.320654e+00	1.288168e+00	1.319377e+00	1.403526e+00	1.391761e+00	1.388502e+00	1.239908e+00	8.163943e-01	8.693636e-01	1.201221e+00	7.861749e-01	7.576697e-01	1.251804e+00	1.257516e+00	1.279339e+00	1.544467e+00	1.520181e+00	1.430798e+00	1.477794e+00	1.458493e+00	1.148244e+00	1.087130e+00	1.102529e+00	1.329123e+00	1.290833e+00	1.293109e+00	1.176893e+00	1.192695e+00	9.409148e-01	7.736621e-01	1.344910e+00	1.229032e+00	1.231967e+00	1.191998e+00	1.178291e+00	1.425275e+00	1.496973e+00	1.396804e+00	1.372763e+00	1.423852e+00	1.453772e+00	1.440939e+00	1.194795e+00	1.309321e+00	1.428576e+00	1.270932e+00	1.274018e+00	1.319773e+00	1.229430e+00	1.227593e+00	1.230080e+00	1.400312e+00	1.397841e+00	1.132101e+00	1.164397e+00	1.109782e+00	1.327896e+00	1.272882e+00	1.316222e+00	1.236811e+00	1.186688e+00	1.253434e+00	1.168005e+00	1.172058e+00	1.178064e+00	1.170333e+00	1.269062e+00	1.241968e+00	1.315872e+00	1.183082e+00	1.198155e+00	1.200874e+00	1.201566e+00	1.196624e+00	1.166813e+00	1.355594e+00	1.359596e+00	1.127382e+00	1.280379e+00	1.267920e+00	1.354483e+00	1.345987e+00	1.166544e+00	1.038293e+00	1.212700e+00	7.801752e-01	1.044239e+00	1.132811e+00	1.185174e+00	1.360123e+00	1.361549e+00	1.298901e+00	1.208252e+00	1.393005e+00	1.402588e+00	1.152750e+00	8.373350e-01	7.896435e-01	7.793056e-01	7.518686e-01	7.606273e-01	7.250866e-01	1.352191e+00	1.367174e+00	1.386146e+00	1.377107e+00	1.198370e+00	1.407932e+00	1.406285e+00	1.408593e+00	1.396367e+00	8.122146e-01	8.620109e-01	1.006063e+00	1.279655e+00	1.281123e+00	1.256411e+00	1.624401e+00	1.381773e+00	1.413145e+00	1.182508e+00	1.172714e+00	1.230997e+00	1.206646e+00	1.215404e+00	1.203821e+00	1.406333e+00	1.409205e+00	1.295986e+00	6.748793e-01	8.022305e-01	1.286916e+00	1.241537e+00	1.154711e+00	1.146154e+00	1.145563e+00	1.424492e+00	1.423139e+00	1.428401e+00	1.373834e+00	1.294350e+00	1.182052e+00	8.834055e-01	1.201900e+00	1.095205e+00	1.098148e+00	1.051000e+00	1.094838e+00	1.444712e+00	7.165073e-01	7.032201e-01	1.132039e+00	1.212576e+00	1.264466e+00	1.146464e+00	1.196077e+00	1.299044e+00	1.247623e+00	1.187331e+00	1.282968e+00	1.255506e+00	9.695956e-01	1.005307e+00	1.224813e+00	1.230884e+00	1.229342e+00	1.202220e+00	1.109989e+00	1.092722e+00	1.134762e+00	1.256929e+00	1.322609e+00	1.308749e+00	1.161902e+00	1.201864e+00	1.258269e+00	1.242759e+00	8.000089e-01	1.166696e+00	1.036288e+00	1.241714e+00	1.309795e+00	1.165749e+00	1.169015e+00	8.784661e-01	1.011015e+00	1.151097e+00	1.142483e+00	1.207661e+00	1.169735e+00	1.166763e+00	1.163179e+00	1.201207e+00	1.189162e+00	8.916154e-01	9.306372e-01	7.825056e-01	1.077425e+00	1.187910e+00	1.236406e+00	1.259867e+00	1.181937e+00	1.125252e+00	1.277726e+00	1.073646e+00	9.575050e-01	1.020388e+00	1.431579e+00	1.412774