# vtk DataFile Version 3.0
vtk output
ASCII
DATASET UNSTRUCTURED_GRID
POINTS 198 double
0.000000e+00	0.000000e+00	0.0	3.444090e-03	3.624671e-03	0.0	7.144311e-03	7.237899e-03	0.0	1.150138e-02	1.038885e-02	0.0	1.609101e-02	1.353800e-02	0.0	2.114699e-02	1.632548e-02	0.0	2.642061e-02	1.913482e-02	0.0	3.210511e-02	2.158167e-02	0.0	3.801458e-02	2.404111e-02	0.0	4.427148e-02	2.620945e-02	0.0	5.076210e-02	2.838002e-02	0.0	5.752635e-02	3.044316e-02	0.0	6.451461e-02	3.256268e-02	0.0	7.173048e-02	3.473886e-02	0.0	7.915902e-02	3.703172e-02	0.0	8.682007e-02	3.938563e-02	0.0	9.477510e-02	4.160181e-02	0.0	1.030087e-01	4.371307e-02	0.0	1.115617e-01	4.556206e-02	0.0	1.204030e-01	4.721414e-02	0.0	1.295546e-01	4.855319e-02	0.0	1.389686e-01	4.979949e-02	0.0	1.486840e-01	5.061691e-02	0.0	1.586483e-01	5.145527e-02	0.0	1.688873e-01	5.182682e-02	0.0	1.793792e-01	5.210020e-02	0.0	1.901153e-01	5.218183e-02	0.0	2.010918e-01	5.181975e-02	0.0	2.123068e-01	5.144980e-02	0.0	2.237392e-01	5.074642e-02	0.0	2.353953e-01	4.992315e-02	0.0	2.472773e-01	4.912402e-02	0.0	2.593869e-01	4.847187e-02	0.0	2.717071e-01	4.780838e-02	0.0	2.842416e-01	4.769064e-02	0.0	2.969771e-01	4.786780e-02	0.0	3.098892e-01	4.820094e-02	0.0	3.229092e-01	4.964315e-02	0.0	3.360947e-01	5.110370e-02	0.0	3.493941e-01	5.289281e-02	0.0	3.628075e-01	5.492124e-02	0.0	3.763550e-01	5.694516e-02	0.0	3.900835e-01	5.851611e-02	0.0	4.039182e-01	6.009921e-02	0.0	4.178940e-01	6.089767e-02	0.0	4.319920e-01	6.100028e-02	0.0	4.461529e-01	6.104592e-02	0.0	4.602964e-01	5.961777e-02	0.0	4.744766e-01	5.818592e-02	0.0	4.886364e-01	5.640937e-02	0.0	5.027664e-01	5.433195e-02	0.0	5.168895e-01	5.225908e-02	0.0	5.310238e-01	5.042864e-02	0.0	5.451215e-01	4.860294e-02	0.0	5.592088e-01	4.718973e-02	0.0	5.732717e-01	4.619134e-02	0.0	5.872550e-01	4.519861e-02	0.0	6.011691e-01	4.464972e-02	0.0	6.149766e-01	4.410982e-02	0.0	6.286621e-01	4.352139e-02	0.0	6.422129e-01	4.288013e-02	0.0	6.556197e-01	4.224568e-02	0.0	6.688300e-01	4.103885e-02	0.0	6.818724e-01	3.981510e-02	0.0	6.947145e-01	3.839616e-02	0.0	7.073352e-01	3.668059e-02	0.0	7.197624e-01	3.499131e-02	0.0	7.319753e-01	3.323854e-02	0.0	7.439770e-01	3.149925e-02	0.0	7.557783e-01	2.990891e-02	0.0	7.673876e-01	2.857987e-02	0.0	7.787688e-01	2.727695e-02	0.0	7.899662e-01	2.656669e-02	0.0	8.009293e-01	2.591398e-02	0.0	8.116600e-01	2.548486e-02	0.0	8.221510e-01	2.517753e-02	0.0	8.323935e-01	2.483548e-02	0.0	8.423853e-01	2.444578e-02	0.0	8.521226e-01	2.398551e-02	0.0	8.615866e-01	2.316786e-02	0.0	8.708013e-01	2.237176e-02	0.0	8.797318e-01	2.127223e-02	0.0	8.884077e-01	2.013084e-02	0.0	8.968259e-01	1.893679e-02	0.0	9.049783e-01	1.762068e-02	0.0	9.128907e-01	1.634332e-02	0.0	9.205501e-01	1.501185e-02	0.0	9.279725e-01	1.370316e-02	0.0	9.351616e-01	1.242079e-02	0.0	9.421192e-01	1.115443e-02	0.0	9.488534e-01	9.928116e-03	0.0	9.553627e-01	8.711877e-03	0.0	9.616570e-01	7.535822e-03	0.0	9.677363e-01	6.377420e-03	0.0	9.736088e-01	5.254560e-03	0.0	9.792758e-01	4.150886e-03	0.0	9.847444e-01	3.078080e-03	0.0	9.900182e-01	2.029344e-03	0.0	9.951013e-01	1.001042e-03	0.0	1.000000e+00	0.000000e+00	0.0	9.950044e-01	2.049046e-04	0.0	9.898196e-01	4.130271e-04	0.0	9.844389e-01	5.700923e-04	0.0	9.788579e-01	6.800562e-04	0.0	9.730723e-01	7.641616e-04	0.0	9.670769e-01	7.869522e-04	0.0	9.608677e-01	7.858625e-04	0.0	9.544401e-01	7.176037e-04	0.0	9.477895e-01	6.321729e-04	0.0	9.409130e-01	4.504815e-04	0.0	9.338046e-01	2.626649e-04	0.0	9.264641e-01	-3.574251e-05	0.0	9.188849e-01	-3.659028e-04	0.0	9.110667e-01	-7.785237e-04	0.0	9.030086e-01	-1.316769e-03	0.0	8.947019e-01	-1.871624e-03	0.0	8.861656e-01	-2.701677e-03	0.0	8.773789e-01	-3.582697e-03	0.0	8.683604e-01	-4.671966e-03	0.0	8.591145e-01	-6.015250e-03	0.0	8.496212e-01	-7.438148e-03	0.0	8.399540e-01	-9.368501e-03	0.0	8.300346e-01	-1.134923e-02	0.0	8.199506e-01	-1.376747e-02	0.0	8.096403e-01	-1.634028e-02	0.0	7.991401e-01	-1.917978e-02	0.0	7.884481e-01	-2.226777e-02	0.0	7.775330e-01	-2.546940e-02	0.0	7.664459e-01	-2.894033e-02	0.0	7.551324e-01	-3.248218e-02	0.0	7.435638e-01	-3.598241e-02	0.0	7.317655e-01	-3.950280e-02	0.0	7.197294e-01	-4.297890e-02	0.0	7.073367e-01	-4.593950e-02	0.0	6.947474e-01	-4.894709e-02	0.0	6.818302e-01	-5.125702e-02	0.0	6.686380e-01	-5.309661e-02	0.0	6.552656e-01	-5.485883e-02	0.0	6.416239e-01	-5.543830e-02	0.0	6.278326e-01	-5.602412e-02	0.0	6.138975e-01	-5.638242e-02	0.0	5.998335e-01	-5.658309e-02	0.0	5.856611e-01	-5.685994e-02	0.0	5.714106e-01	-5.767277e-02	0.0	5.570774e-01	-5.849033e-02	0.0	5.427687e-01	-6.020081e-02	0.0	5.284549e-01	-6.237718e-02	0.0	5.141286e-01	-6.470006e-02	0.0	4.998952e-01	-6.766854e-02	0.0	4.856542e-01	-7.063860e-02	0.0	4.713984e-01	-7.349671e-02	0.0	4.571548e-01	-7.629853e-02	0.0	4.429162e-01	-7.888593e-02	0.0	4.285905e-01	-8.057412e-02	0.0	4.143326e-01	-8.225431e-02	0.0	4.000887e-01	-8.295239e-02	0.0	3.859160e-01	-8.327761e-02	0.0	3.718553e-01	-8.338717e-02	0.0	3.579217e-01	-8.293099e-02	0.0	3.441254e-01	-8.247930e-02	0.0	3.304840e-01	-8.189572e-02	0.0	3.170052e-01	-8.128812e-02	0.0	3.036954e-01	-8.078730e-02	0.0	2.905624e-01	-8.047785e-02	0.0	2.776224e-01	-8.017294e-02	0.0	2.648818e-01	-8.005593e-02	0.0	2.523515e-01	-7.996682e-02	0.0	2.400395e-01	-7.988920e-02	0.0	2.279529e-01	-7.982802e-02	0.0	2.160980e-01	-7.976802e-02	0.0	2.044825e-01	-7.954992e-02	0.0	1.931094e-01	-7.932126e-02	0.0	1.819915e-01	-7.888673e-02	0.0	1.711350e-01	-7.818529e-02	0.0	1.605306e-01	-7.750014e-02	0.0	1.502714e-01	-7.598955e-02	0.0	1.402705e-01	-7.447303e-02	0.0	1.306558e-01	-7.239794e-02	0.0	1.214408e-01	-6.970505e-02	0.0	1.124729e-01	-6.708437e-02	0.0	1.041976e-01	-6.334550e-02	0.0	9.618175e-02	-5.964021e-02	0.0	8.852040e-02	-5.580365e-02	0.0	8.133271e-02	-5.160289e-02	0.0	7.436019e-02	-4.752790e-02	0.0	6.769474e-02	-4.342195e-02	0.0	6.127969e-02	-3.937213e-02	0.0	5.504755e-02	-3.548289e-02	0.0	4.889928e-02	-3.191042e-02	0.0	4.295153e-02	-2.845446e-02	0.0	3.705186e-02	-2.538488e-02	0.0	3.133434e-02	-2.244735e-02	0.0	2.577911e-02	-1.967335e-02	0.0	2.045557e-02	-1.691983e-02	0.0	1.543596e-02	-1.404148e-02	0.0	1.079628e-02	-1.095054e-02	0.0	6.483383e-03	-7.737172e-03	0.0	2.724098e-03	-4.160434e-03	0.0	
CELLS 198	594
2	9	10	2	10	11	2	11	12	2	12	13	2	13	14	2	14	15	2	15	16	2	16	17	2	17	18	2	18	19	2	19	20	2	20	21	2	21	22	2	22	23	2	23	24	2	24	25	2	25	26	2	26	27	2	27	28	2	28	29	2	29	30	2	30	31	2	31	32	2	32	33	2	33	34	2	34	35	2	35	36	2	36	37	2	37	38	2	38	39	2	39	40	2	40	41	2	41	42	2	42	43	2	43	44	2	44	45	2	45	46	2	46	47	2	47	48	2	48	49	2	49	50	2	50	51	2	51	52	2	52	53	2	53	54	2	54	55	2	55	56	2	56	57	2	57	58	2	58	59	2	59	60	2	60	61	2	61	62	2	62	63	2	63	64	2	64	65	2	65	66	2	66	67	2	67	68	2	68	69	2	69	70	2	70	71	2	71	72	2	72	73	2	73	74	2	74	75	2	75	76	2	76	77	2	77	78	2	78	79	2	79	80	2	80	81	2	81	82	2	82	83	2	83	84	2	84	85	2	85	86	2	86	87	2	87	88	2	88	89	2	89	90	2	90	91	2	91	92	2	92	93	2	93	94	2	94	95	2	95	96	2	96	97	2	97	98	2	98	99	2	99	100	2	100	101	2	101	102	2	102	103	2	103	104	2	104	105	2	105	106	2	106	107	2	107	108	2	108	109	2	109	110	2	110	111	2	111	112	2	112	113	2	113	114	2	114	115	2	115	116	2	116	117	2	117	118	2	118	119	2	119	120	2	120	121	2	121	122	2	122	123	2	123	124	2	124	125	2	125	126	2	126	127	2	127	128	2	128	129	2	129	130	2	130	131	2	131	132	2	132	133	2	133	134	2	134	135	2	135	136	2	136	137	2	137	138	2	138	139	2	139	140	2	140	141	2	141	142	2	0	1	2	1	2	2	2	3	2	3	4	2	4	5	2	5	6	2	6	7	2	7	8	2	8	9	2	142	143	2	143	144	2	144	145	2	145	146	2	146	147	2	147	148	2	148	149	2	149	150	2	150	151	2	151	152	2	152	153	2	153	154	2	154	155	2	155	156	2	156	157	2	157	158	2	158	159	2	159	160	2	160	161	2	161	162	2	162	163	2	163	164	2	164	165	2	165	166	2	166	167	2	167	168	2	168	169	2	169	170	2	170	171	2	171	172	2	172	173	2	173	174	2	174	175	2	175	176	2	176	177	2	177	178	2	178	179	2	179	180	2	180	181	2	181	182	2	182	183	2	183	184	2	184	185	2	185	186	2	186	187	2	187	188	2	188	189	2	189	190	2	190	191	2	191	192	2	192	193	2	193	194	2	194	195	2	195	196	2	196	197	2	197	0	
CELL_TYPES 198
3	3	3	3	3	3	3	3	3	3	3	3	3	3	3	3	3	3	3	3	3	3	3	3	3	3	3	3	3	3	3	3	3	3	3	3	3	3	3	3	3	3	3	3	3	3	3	3	3	3	3	3	3	3	3	3	3	3	3	3	3	3	3	3	3	3	3	3	3	3	3	3	3	3	3	3	3	3	3	3	3	3	3	3	3	3	3	3	3	3	3	3	3	3	3	3	3	3	3	3	3	3	3	3	3	3	3	3	3	3	3	3	3	3	3	3	3	3	3	3	3	3	3	3	3	3	3	3	3	3	3	3	3	3	3	3	3	3	3	3	3	3	3	3	3	3	3	3	3	3	3	3	3	3	3	3	3	3	3	3	3	3	3	3	3	3	3	3	3	3	3	3	3	3	3	3	3	3	3	3	3	3	3	3	3	3	3	3	3	3	3	3	3	3	3	3	3	3	
POINT_DATA 198

SCALARS Density double 1
LOOKUP_TABLE default
1.478852e+00	1.154945e+00	1.196694e+00	1.169019e+00	1.130364e+00	1.098319e+00	1.068935e+00	1.041586e+00	1.037176e+00	1.039932e+00	1.067410e+00	1.089246e+00	1.108121e+00	1.107578e+00	1.090024e+00	1.044623e+00	9.914105e-01	9.388565e-01	8.866587e-01	8.406108e-01	8.079461e-01	7.721880e-01	7.460637e-01	7.211979e-01	6.929297e-01	6.811274e-01	6.521586e-01	6.303574e-01	6.190469e-01	6.038769e-01	5.968021e-01	6.177509e-01	6.516392e-01	8.630343e-01	1.165028e+00	1.227910e+00	1.234227e+00	1.219534e+00	1.184651e+00	1.164669e+00	1.127875e+00	1.071475e+00	1.022233e+00	9.616757e-01	8.856135e-01	8.477037e-01	7.681357e-01	7.040174e-01	7.068284e-01	7.887835e-01	1.013906e+00	1.142209e+00	1.156493e+00	1.165296e+00	1.179359e+00	1.173970e+00	1.169658e+00	1.164386e+00	1.147460e+00	1.136252e+00	1.130158e+00	1.115838e+00	1.115735e+00	1.131870e+00	1.137983e+00	1.155801e+00	1.176041e+00	1.189629e+00	1.206166e+00	1.221129e+00	1.226758e+00	1.235881e+00	1.236519e+00	1.224830e+00	1.219583e+00	1.206040e+00	1.192085e+00	1.182783e+00	1.168768e+00	1.168289e+00	1.172492e+00	1.175436e+00	1.189156e+00	1.195040e+00	1.205336e+00	1.216066e+00	1.223804e+00	1.234026e+00	1.241185e+00	1.248579e+00	1.255223e+00	1.262005e+00	1.268730e+00	1.275510e+00	1.282187e+00	1.290258e+00	1.297483e+00	1.312599e+00	1.309790e+00	1.332181e+00	1.449195e+00	1.394590e+00	1.406758e+00	1.410748e+00	1.409952e+00	1.412760e+00	1.414094e+00	1.416561e+00	1.417832e+00	1.419957e+00	1.422302e+00	1.423062e+00	1.427225e+00	1.426975e+00	1.432700e+00	1.434710e+00	1.434339e+00	1.439539e+00	1.435540e+00	1.440012e+00	1.436325e+00	1.431711e+00	1.427649e+00	1.416382e+00	1.408583e+00	1.393590e+00	1.380045e+00	1.362650e+00	1.335400e+00	1.311080e+00	1.283733e+00	1.240132e+00	1.209440e+00	1.163590e+00	1.120333e+00	1.111398e+00	1.084666e+00	1.106950e+00	1.166059e+00	1.195588e+00	1.236865e+00	1.278820e+00	1.298122e+00	1.320671e+00	1.337521e+00	1.323272e+00	1.318506e+00	1.299159e+00	1.259820e+00	1.229112e+00	1.192685e+00	1.079982e+00	9.413444e-01	8.811744e-01	8.947205e-01	9.602382e-01	1.002254e+00	1.056187e+00	1.105377e+00	1.135273e+00	1.167808e+00	1.192988e+00	1.201851e+00	1.207295e+00	1.208364e+00	1.198314e+00	1.190789e+00	1.178131e+00	1.158420e+00	1.142191e+00	1.122253e+00	1.087587e+00	1.031452e+00	9.443956e-01	9.278322e-01	9.441473e-01	9.654186e-01	1.025971e+00	1.046226e+00	1.120045e+00	1.222262e+00	1.255876e+00	1.313870e+00	1.368895e+00	1.404233e+00	1.442930e+00	1.477111e+00	1.497803e+00	1.517852e+00	1.533479e+00	1.541325e+00	1.552330e+00	1.559628e+00	1.573682e+00	1.591375e+00	1.615632e+00	1.627067e+00	1.674905e+00	
VECTORS Momentum double
2.379825e+01	2.285247e+02	0.0	1.783910e+02	1.771480e+02	0.0	2.030026e+02	1.695668e+02	0.0	2.337684e+02	1.641273e+02	0.0	2.524250e+02	1.548673e+02	0.0	2.668469e+02	1.445404e+02	0.0	2.790024e+02	1.338417e+02	0.0	2.857213e+02	1.207239e+02	0.0	2.929100e+02	1.112562e+02	0.0	2.955837e+02	1.003260e+02	0.0	2.979905e+02	9.516664e+01	0.0	2.979470e+02	9.054564e+01	0.0	2.988097e+02	9.040121e+01	0.0	2.992337e+02	9.125595e+01	0.0	3.031544e+02	9.360246e+01	0.0	3.059525e+02	8.995267e+01	0.0	3.081418e+02	8.266586e+01	0.0	3.096478e+02	7.312344e+01	0.0	3.090673e+02	6.230777e+01	0.0	3.060420e+02	5.095346e+01	0.0	3.042588e+02	4.251042e+01	0.0	3.000513e+02	3.242309e+01	0.0	2.969341e+02	2.493904e+01	0.0	2.937763e+02	1.783503e+01	0.0	2.878309e+02	9.130173e+00	0.0	2.865011e+02	5.015511e+00	0.0	2.797030e+02	-3.175003e+00	0.0	2.738617e+02	-9.317335e+00	0.0	2.717807e+02	-1.303488e+01	0.0	2.677933e+02	-1.774963e+01	0.0	2.640265e+02	-1.851262e+01	0.0	2.738337e+02	-1.693153e+01	0.0	2.729249e+02	-1.466631e+01	0.0	2.734282e+02	-9.249708e+00	0.0	2.774022e+02	2.908415e+00	0.0	2.729951e+02	6.109651e+00	0.0	2.708310e+02	1.897540e+01	0.0	2.754255e+02	3.090116e+01	0.0	2.787513e+02	3.401688e+01	0.0	2.833746e+02	4.034936e+01	0.0	2.912245e+02	4.404967e+01	0.0	2.971213e+02	3.945936e+01	0.0	3.017401e+02	3.448480e+01	0.0	3.062709e+02	2.648019e+01	0.0	3.016441e+02	9.749072e+00	0.0	3.011006e+02	2.070756e+00	0.0	2.918912e+02	-1.367106e+01	0.0	2.788943e+02	-2.821230e+01	0.0	2.755430e+02	-3.167225e+01	0.0	2.749826e+02	-3.895880e+01	0.0	2.742132e+02	-3.977833e+01	0.0	2.710288e+02	-3.698605e+01	0.0	2.673407e+02	-3.459102e+01	0.0	2.615408e+02	-3.002963e+01	0.0	2.606247e+02	-2.209551e+01	0.0	2.608085e+02	-1.841721e+01	0.0	2.612169e+02	-1.453695e+01	0.0	2.644607e+02	-1.024369e+01	0.0	2.676340e+02	-1.094065e+01	0.0	2.693244e+02	-1.232168e+01	0.0	2.731621e+02	-1.280597e+01	0.0	2.745863e+02	-1.891037e+01	0.0	2.720138e+02	-2.538847e+01	0.0	2.712012e+02	-2.773345e+01	0.0	2.677825e+02	-3.293458e+01	0.0	2.629917e+02	-3.574114e+01	0.0	2.588252e+02	-3.605397e+01	0.0	2.539140e+02	-3.665617e+01	0.0	2.488488e+02	-3.491214e+01	0.0	2.458668e+02	-3.065679e+01	0.0	2.424138e+02	-2.777045e+01	0.0	2.407649e+02	-2.150055e+01	0.0	2.431348e+02	-1.482263e+01	0.0	2.449145e+02	-1.223197e+01	0.0	2.483761e+02	-8.624224e+00	0.0	2.528924e+02	-7.958728e+00	0.0	2.564366e+02	-9.380981e+00	0.0	2.608485e+02	-1.120700e+01	0.0	2.625390e+02	-1.762113e+01	0.0	2.622848e+02	-2.280098e+01	0.0	2.619310e+02	-2.737575e+01	0.0	2.587314e+02	-3.299356e+01	0.0	2.563477e+02	-3.489829e+01	0.0	2.529723e+02	-3.821903e+01	0.0	2.491663e+02	-4.022250e+01	0.0	2.459399e+02	-4.114635e+01	0.0	2.421805e+02	-4.238256e+01	0.0	2.388941e+02	-4.233437e+01	0.0	2.358152e+02	-4.248401e+01	0.0	2.328990e+02	-4.239248e+01	0.0	2.299272e+02	-4.240210e+01	0.0	2.269360e+02	-4.239454e+01	0.0	2.238485e+02	-4.223666e+01	0.0	2.206944e+02	-4.212917e+01	0.0	2.170599e+02	-4.192056e+01	0.0	2.132642e+02	-4.164774e+01	0.0	2.082047e+02	-4.113826e+01	0.0	2.034935e+02	-4.039570e+01	0.0	1.888848e+02	-4.016499e+01	0.0	2.001105e+02	-1.177379e+01	0.0	2.851544e+02	-1.580499e+01	0.0	2.571310e+02	-8.157778e+00	0.0	2.607253e+02	-6.478110e+00	0.0	2.625369e+02	-4.774084e+00	0.0	2.601983e+02	-2.285754e+00	0.0	2.598191e+02	-4.685084e-01	0.0	2.591191e+02	1.422509e+00	0.0	2.582463e+02	3.040757e+00	0.0	2.574074e+02	5.094776e+00	0.0	2.566689e+02	6.776581e+00	0.0	2.556188e+02	8.577875e+00	0.0	2.546322e+02	1.071778e+01	0.0	2.534806e+02	1.221070e+01	0.0	2.520807e+02	1.514854e+01	0.0	2.510254e+02	1.669605e+01	0.0	2.487441e+02	2.043065e+01	0.0	2.479316e+02	2.443960e+01	0.0	2.473578e+02	2.719906e+01	0.0	2.461216e+02	3.286506e+01	0.0	2.459798e+02	3.620991e+01	0.0	2.448381e+02	4.290236e+01	0.0	2.461881e+02	4.917178e+01	0.0	2.479076e+02	5.444881e+01	0.0	2.499397e+02	6.113946e+01	0.0	2.536787e+02	6.591409e+01	0.0	2.571580e+02	7.195011e+01	0.0	2.623109e+02	7.635590e+01	0.0	2.666859e+02	8.082381e+01	0.0	2.731918e+02	8.552967e+01	0.0	2.818562e+02	8.666472e+01	0.0	2.886855e+02	8.672781e+01	0.0	2.956915e+02	8.675252e+01	0.0	3.058231e+02	8.046506e+01	0.0	3.110041e+02	7.484619e+01	0.0	3.165542e+02	6.607352e+01	0.0	3.226841e+02	5.118148e+01	0.0	3.211187e+02	4.357848e+01	0.0	3.261269e+02	2.802884e+01	0.0	3.255754e+02	1.327307e+01	0.0	3.168942e+02	1.086645e+01	0.0	3.123405e+02	5.923502e+00	0.0	3.050430e+02	5.016478e+00	0.0	2.967750e+02	1.149492e+01	0.0	2.923470e+02	1.661019e+01	0.0	2.877052e+02	2.544388e+01	0.0	2.856884e+02	3.901059e+01	0.0	2.892040e+02	4.526301e+01	0.0	2.911853e+02	5.392509e+01	0.0	2.963857e+02	6.189737e+01	0.0	3.045480e+02	6.224532e+01	0.0	3.082636e+02	6.124839e+01	0.0	3.103554e+02	5.863682e+01	0.0	3.175077e+02	4.784090e+01	0.0	3.182993e+02	3.759682e+01	0.0	3.236236e+02	2.710582e+01	0.0	3.313385e+02	1.162277e+01	0.0	3.306904e+02	5.203010e+00	0.0	3.329837e+02	-4.431151e+00	0.0	3.317390e+02	-1.102535e+01	0.0	3.282949e+02	-1.243697e+01	0.0	3.268556e+02	-1.446762e+01	0.0	3.243979e+02	-1.330825e+01	0.0	3.220402e+02	-9.817073e+00	0.0	3.216710e+02	-7.600234e+00	0.0	3.217078e+02	-5.359563e+00	0.0	3.217125e+02	-2.620205e+00	0.0	3.233932e+02	-2.235703e+00	0.0	3.240472e+02	-1.826418e+00	0.0	3.251728e+02	-1.578203e+00	0.0	3.268394e+02	-3.776871e+00	0.0	3.269843e+02	-6.377147e+00	0.0	3.280294e+02	-1.013017e+01	0.0	3.283318e+02	-1.688193e+01	0.0	3.223209e+02	-2.006786e+01	0.0	3.250993e+02	-3.450976e+01	0.0	3.257792e+02	-4.838134e+01	0.0	3.234544e+02	-6.012602e+01	0.0	3.243917e+02	-8.313859e+01	0.0	3.161011e+02	-9.196216e+01	0.0	3.112416e+02	-1.166814e+02	0.0	2.978907e+02	-1.380482e+02	0.0	2.833265e+02	-1.360874e+02	0.0	2.699334e+02	-1.460429e+02	0.0	2.517547e+02	-1.467925e+02	0.0	2.361991e+02	-1.416430e+02	0.0	2.212127e+02	-1.381767e+02	0.0	2.071011e+02	-1.301907e+02	0.0	1.968241e+02	-1.185541e+02	0.0	1.882511e+02	-1.094193e+02	0.0	1.810332e+02	-9.974815e+01	0.0	1.757474e+02	-9.080046e+01	0.0	1.692562e+02	-8.575818e+01	0.0	1.598239e+02	-8.102300e+01	0.0	1.447706e+02	-7.874535e+01	0.0	1.209826e+02	-7.421347e+01	0.0	8.659628e+01	-5.985791e+01	0.0	3.438518e+01	-2.634767e+01	0.0	-3.848812e+01	4.609315e+01	0.0	
SCALARS Energy double 1
LOOKUP_TABLE default
3.258043e+05	2.582800e+05	2.678676e+05	2.634841e+05	2.562153e+05	2.501613e+05	2.446070e+05	2.390746e+05	2.384447e+05	2.389051e+05	2.445757e+05	2.489325e+05	2.528722e+05	2.528132e+05	2.495762e+05	2.404454e+05	2.296646e+05	2.190040e+05	2.082973e+05	1.986539e+05	1.918996e+05	1.843076e+05	1.787938e+05	1.735579e+05	1.673663e+05	1.649307e+05	1.585670e+05	1.537166e+05	1.513318e+05	1.479966e+05	1.461915e+05	1.513727e+05	1.576918e+05	1.995477e+05	2.620856e+05	2.749602e+05	2.761867e+05	2.734670e+05	2.664137e+05	2.626201e+05	2.555797e+05	2.443385e+05	2.345721e+05	2.225880e+05	2.067473e+05	1.991128e+05	1.824586e+05	1.686184e+05	1.688310e+05	1.850257e+05	2.306936e+05	2.570584e+05	2.597741e+05	2.612032e+05	2.640435e+05	2.629064e+05	2.620123e+05	2.611031e+05	2.577714e+05	2.555471e+05	2.545394e+05	2.516799e+05	2.515153e+05	2.548382e+05	2.559217e+05	2.593544e+05	2.633325e+05	2.658873e+05	2.690487e+05	2.719968e+05	2.729685e+05	2.747679e+05	2.750072e+05	2.726309e+05	2.717143e+05	2.691256e+05	2.664073e+05	2.647324e+05	2.619225e+05	2.618314e+05	2.627179e+05	2.631738e+05	2.659218e+05	2.669817e+05	2.689398e+05	2.710213e+05	2.724511e+05	2.744259e+05	2.757722e+05	2.771794e+05	2.784297e+05	2.797122e+05	2.809805e+05	2.822618e+05	2.835010e+05	2.850339e+05	2.863322e+05	2.893354e+05	2.881092e+05	2.932066e+05	3.223134e+05	3.092112e+05	3.119778e+05	3.129177e+05	3.126232e+05	3.131981e+05	3.134444e+05	3.139229e+05	3.141505e+05	3.145651e+05	3.150116e+05	3.151265e+05	3.159550e+05	3.158393e+05	3.170072e+05	3.173345e+05	3.172334e+05	3.183247e+05	3.174477e+05	3.184144e+05	3.176276e+05	3.167705e+05	3.160473e+05	3.138351e+05	3.124333e+05	3.095244e+05	3.070035e+05	3.036461e+05	2.983622e+05	2.937961e+05	2.885023e+05	2.798747e+05	2.740921e+05	2.648996e+05	2.562905e+05	2.547392e+05	2.490527e+05	2.538814e+05	2.658800e+05	2.712892e+05	2.794991e+05	2.877232e+05	2.912186e+05	2.956762e+05	2.989657e+05	2.959412e+05	2.952160e+05	2.913796e+05	2.836008e+05	2.777763e+05	2.704778e+05	2.474015e+05	2.197868e+05	2.077464e+05	2.108692e+05	2.245910e+05	2.329404e+05	2.440452e+05	2.539512e+05	2.597776e+05	2.663462e+05	2.713348e+05	2.729730e+05	2.740652e+05	2.742857e+05	2.722066e+05	2.707824e+05	2.682234e+05	2.642555e+05	2.610588e+05	2.569878e+05	2.500022e+05	2.386514e+05	2.205785e+05	2.176665e+05	2.211612e+05	2.253777e+05	2.381074e+05	2.416835e+05	2.569856e+05	2.776597e+05	2.835879e+05	2.951681e+05	3.057224e+05	3.122395e+05	3.196498e+05	3.261146e+05	3.298499e+05	3.336246e+05	3.365312e+05	3.378796e+05	3.399525e+05	3.411629e+05	3.437352e+05	3.469148e+05	3.513468e+05	3.530115e+05	3.635284e+05	
SCALARS Pressure double 1
LOOKUP_TABLE default
1.231824e+05	9.236692e+04	9.545434e+04	9.143569e+04	8.696860e+04	8.329357e+04	7.992667e+04	7.715590e+04	7.644682e+04	7.682330e+04	7.949523e+04	8.176787e+04	8.355881e+04	8.345277e+04	8.136043e+04	7.670731e+04	7.133246e+04	6.603733e+04	6.089658e+04	5.655964e+04	5.339676e+04	5.013241e+04	4.771478e+04	4.540128e+04	4.301048e+04	4.186284e+04	3.943147e+04	3.766299e+04	3.661382e+04	3.534335e+04	3.500055e+04	3.617951e+04	4.014898e+04	6.247365e+04	9.162248e+04	9.783928e+04	9.853045e+04	9.678952e+04	9.325194e+04	9.097892e+04	8.684859e+04	8.096635e+04	7.578280e+04	6.938138e+04	6.212920e+04	5.825418e+04	5.075109e+04	4.512465e+04	4.576555e+04	5.445278e+04	7.713301e+04	8.972163e+04	9.134273e+04	9.258639e+04	9.401560e+04	9.351658e+04	9.310140e+04	9.241009e+04	9.060310e+04	8.942461e+04	8.858195e+04	8.709379e+04	8.722731e+04	8.880316e+04	8.957551e+04	9.155245e+04	9.371940e+04	9.528995e+04	9.714919e+04	9.874403e+04	9.948124e+04	1.004515e+05	1.004059e+05	9.923339e+04	9.855685e+04	9.703403e+04	9.551544e+04	9.436632e+04	9.292108e+04	9.286680e+04	9.325644e+04	9.369416e+04	9.511167e+04	9.583811e+04	9.700599e+04	9.818217e+04	9.910178e+04	1.002304e+05	1.010575e+05	1.018953e+05	1.026619e+05	1.034385e+05	1.042120e+05	1.049893e+05	1.057771e+05	1.066947e+05	1.075900e+05	1.091760e+05	1.095495e+05	1.112500e+05	1.176691e+05	1.141931e+05	1.151207e+05	1.153923e+05	1.154449e+05	1.157226e+05	1.158813e+05	1.161519e+05	1.163101e+05	1.165406e+05	1.168062e+05	1.169221e+05	1.173573e+05	1.173973e+05	1.179675e+05	1.182504e+05	1.182389e+05	1.187263e+05	1.183892e+05	1.187801e+05	1.184477e+05	1.179038e+05	1.173939e+05	1.161852e+05	1.152192e+05	1.135762e+05	1.119848e+05	1.100610e+05	1.070716e+05	1.042540e+05	1.012451e+05	9.663548e+04	9.309988e+04	8.837192e+04	8.384814e+04	8.268663e+04	8.025729e+04	8.219409e+04	8.814100e+04	9.169716e+04	9.601915e+04	1.005327e+05	1.028974e+05	1.052858e+05	1.071122e+05	1.058107e+05	1.050887e+05	1.030513e+05	9.888654e+04	9.538795e+04	9.162717e+04	8.048644e+04	6.600990e+04	5.978241e+04	6.077227e+04	6.694201e+04	7.134874e+04	7.661842e+04	8.164660e+04	8.489674e+04	8.820603e+04	9.086213e+04	9.191479e+04	9.247536e+04	9.257959e+04	9.160742e+04	9.074677e+04	8.946285e+04	8.744632e+04	8.571590e+04	8.373357e+04	8.019446e+04	7.450238e+04	6.614458e+04	6.402785e+04	6.548652e+04	6.772807e+04	7.338231e+04	7.595572e+04	8.306539e+04	9.342508e+04	9.770215e+04	1.037291e+05	1.098806e+05	1.140924e+05	1.184308e+05	1.223435e+05	1.248903e+05	1.272027e+05	1.290405e+05	1.300742e+05	1.313425e+05	1.323477e+05	1.340424e+05	1.362342e+05	1.391669e+05	1.409739e+05	1.449808e+05	
SCALARS Temperature double 1
LOOKUP_TABLE default
2.901712e+02	2.786028e+02	2.778709e+02	2.724737e+02	2.680245e+02	2.641882e+02	2.604779e+02	2.580504e+02	2.567660e+02	2.573466e+02	2.594419e+02	2.615092e+02	2.626850e+02	2.624804e+02	2.600204e+02	2.558041e+02	2.506479e+02	2.450308e+02	2.392581e+02	2.343916e+02	2.302305e+02	2.261653e+02	2.227960e+02	2.193027e+02	2.162298e+02	2.141069e+02	2.106299e+02	2.081413e+02	2.060401e+02	2.038870e+02	2.043031e+02	2.040232e+02	2.146336e+02	2.521734e+02	2.739656e+02	2.775728e+02	2.781031e+02	2.764806e+02	2.742193e+02	2.721252e+02	2.682453e+02	2.632407e+02	2.582564e+02	2.513302e+02	2.443891e+02	2.393941e+02	2.301642e+02	2.232856e+02	2.255564e+02	2.404875e+02	2.650166e+02	2.736416e+02	2.751449e+02	2.767841e+02	2.777053e+02	2.774993e+02	2.772859e+02	2.764731e+02	2.750652e+02	2.741654e+02	2.730464e+02	2.719046e+02	2.723464e+02	2.733141e+02	2.742103e+02	2.759416e+02	2.776113e+02	2.790396e+02	2.805836e+02	2.816952e+02	2.824961e+02	2.831459e+02	2.828713e+02	2.822360e+02	2.815178e+02	2.802803e+02	2.791237e+02	2.779343e+02	2.769596e+02	2.769112e+02	2.770761e+02	2.776796e+02	2.786284e+02	2.793742e+02	2.803630e+02	2.812587e+02	2.820979e+02	2.829473e+02	2.836366e+02	2.842945e+02	2.849175e+02	2.855298e+02	2.861403e+02	2.867421e+02	2.873894e+02	2.880690e+02	2.888686e+02	2.897513e+02	2.913661e+02	2.909157e+02	2.828564e+02	2.852487e+02	2.850785e+02	2.849429e+02	2.852338e+02	2.853515e+02	2.854732e+02	2.856416e+02	2.857742e+02	2.859120e+02	2.860912e+02	2.862219e+02	2.864495e+02	2.865973e+02	2.868384e+02	2.871235e+02	2.871698e+02	2.873121e+02	2.872943e+02	2.873479e+02	2.872791e+02	2.868818e+02	2.864536e+02	2.857596e+02	2.849527e+02	2.839113e+02	2.826807e+02	2.813710e+02	2.793143e+02	2.770091e+02	2.747451e+02	2.714557e+02	2.681606e+02	2.645725e+02	2.607213e+02	2.591767e+02	2.577618e+02	2.586680e+02	2.633225e+02	2.671804e+02	2.704368e+02	2.738598e+02	2.761337e+02	2.777189e+02	2.789772e+02	2.785548e+02	2.776543e+02	2.763259e+02	2.734382e+02	2.703538e+02	2.676263e+02	2.596189e+02	2.442817e+02	2.363425e+02	2.366184e+02	2.428567e+02	2.479927e+02	2.527101e+02	2.573108e+02	2.605080e+02	2.631220e+02	2.653244e+02	2.664190e+02	2.668351e+02	2.668995e+02	2.663117e+02	2.654770e+02	2.645328e+02	2.629699e+02	2.614286e+02	2.599197e+02	2.568685e+02	2.516237e+02	2.439892e+02	2.403974e+02	2.416254e+02	2.443900e+02	2.491648e+02	2.529096e+02	2.583540e+02	2.662744e+02	2.710114e+02	2.750290e+02	2.796285e+02	2.830400e+02	2.859234e+02	2.885347e+02	2.904721e+02	2.919424e+02	2.931423e+02	2.939863e+02	2.947485e+02	2.956145e+02	2.967259e+02	2.982251e+02	3.000709e+02	3.018309e+02	3.015440e+02	
SCALARS Mach double 1
LOOKUP_TABLE default
4.549614e-01	6.505372e-01	6.614252e-01	7.383693e-01	7.982723e-01	8.479964e-01	8.947411e-01	9.247324e-01	9.404351e-01	9.333502e-01	9.075934e-01	8.818655e-01	8.670787e-01	8.696606e-01	9.004269e-01	9.521269e-01	1.013929e+00	1.079925e+00	1.146740e+00	1.202551e+00	1.250053e+00	1.296377e+00	1.334775e+00	1.374644e+00	1.409808e+00	1.434169e+00	1.474222e+00	1.503030e+00	1.527457e+00	1.552600e+00	1.547732e+00	1.551006e+00	1.428119e+00	9.957841e-01	7.176299e-01	6.658243e-01	6.579836e-01	6.817816e-01	7.140668e-01	7.431627e-01	7.953607e-01	8.600486e-01	9.222031e-01	1.005827e+00	1.087395e+00	1.145176e+00	1.250809e+00	1.329192e+00	1.303315e+00	1.132577e+00	8.373895e-01	7.221656e-01	7.009676e-01	6.773726e-01	6.638712e-01	6.669066e-01	6.700408e-01	6.818904e-01	7.021008e-01	7.148250e-01	7.304507e-01	7.461878e-01	7.401225e-01	7.267315e-01	7.141932e-01	6.895655e-01	6.652573e-01	6.439800e-01	6.204130e-01	6.030449e-01	5.903023e-01	5.798123e-01	5.842634e-01	5.944628e-01	6.058406e-01	6.250918e-01	6.427114e-01	6.604861e-01	6.748149e-01	6.755204e-01	6.731123e-01	6.642508e-01	6.501547e-01	6.389242e-01	6.238184e-01	6.099083e-01	5.966630e-01	5.830338e-01	5.717964e-01	5.609140e-01	5.504570e-01	5.400287e-01	5.294721e-01	5.189016e-01	5.073363e-01	4.949617e-01	4.800715e-01	4.631799e-01	4.308539e-01	4.400729e-01	5.845042e-01	5.448359e-01	5.477302e-01	5.500280e-01	5.450892e-01	5.430810e-01	5.409987e-01	5.381077e-01	5.358225e-01	5.334386e-01	5.303275e-01	5.280480e-01	5.240623e-01	5.214600e-01	5.171938e-01	5.121127e-01	5.112834e-01	5.087285e-01	5.090493e-01	5.080843e-01	5.093221e-01	5.164231e-01	5.239895e-01	5.360747e-01	5.498612e-01	5.672716e-01	5.873374e-01	6.081472e-01	6.398310e-01	6.740920e-01	7.066437e-01	7.523203e-01	7.964790e-01	8.430841e-01	8.917106e-01	9.108702e-01	9.282693e-01	9.171413e-01	8.590116e-01	8.093507e-01	7.661298e-01	7.191136e-01	6.867979e-01	6.636703e-01	6.449197e-01	6.512546e-01	6.646242e-01	6.840218e-01	7.250041e-01	7.672484e-01	8.035088e-01	9.054026e-01	1.088645e+00	1.180219e+00	1.177058e+00	1.105188e+00	1.045272e+00	9.893738e-01	9.337872e-01	8.943672e-01	8.615530e-01	8.334311e-01	8.192751e-01	8.138593e-01	8.130201e-01	8.206681e-01	8.314657e-01	8.435929e-01	8.634785e-01	8.828754e-01	9.016755e-01	9.391859e-01	1.002335e+00	1.092045e+00	1.133616e+00	1.119440e+00	1.087385e+00	1.031471e+00	9.869870e-01	9.210043e-01	8.211523e-01	7.583594e-01	7.026157e-01	6.350634e-01	5.815322e-01	5.332421e-01	4.863360e-01	4.489932e-01	4.188060e-01	3.927023e-01	3.733866e-01	3.551447e-01	3.333316e-01	3.032607e-01	2.576226e-01	1.876306e-01	7.644389e-02	1.029896e-01	
SCALARS Pressure_Coefficient double 1
LOOKUP_TABLE default