# vtk DataFile Version 3.0
vtk output
ASCII
DATASET UNSTRUCTURED_GRID
POINTS 1838 double
1.000000e+02	0.000000e+00	0.0	9.917900e+01	1.278772e+01	0.0	9.672949e+01	2.536546e+01	0.0	9.269168e+01	3.752670e+01	0.0	8.713187e+01	4.907176e+01	0.0	8.014136e+01	5.981105e+01	0.0	7.183494e+01	6.956826e+01	0.0	6.234898e+01	7.818315e+01	0.0	5.183926e+01	8.551428e+01	0.0	4.047833e+01	9.144126e+01	0.0	2.845276e+01	9.586679e+01	0.0	1.595999e+01	9.871818e+01	0.0	3.205158e+00	9.994862e+01	0.0	-9.602303e+00	9.953791e+01	0.0	-2.225209e+01	9.749279e+01	0.0	-3.453651e+01	9.384684e+01	0.0	-4.625383e+01	8.865993e+01	0.0	-5.721167e+01	8.201723e+01	0.0	-6.723009e+01	7.402780e+01	0.0	-7.614460e+01	6.482284e+01	0.0	-8.380881e+01	5.455349e+01	0.0	-9.009689e+01	4.338837e+01	0.0	-9.490557e+01	3.151082e+01	0.0	-9.815592e+01	1.911586e+01	0.0	-9.979454e+01	6.407022e+00	0.0	-9.979454e+01	-6.407022e+00	0.0	-9.815592e+01	-1.911586e+01	0.0	-9.490557e+01	-3.151082e+01	0.0	-9.009689e+01	-4.338837e+01	0.0	-8.380881e+01	-5.455349e+01	0.0	-7.614460e+01	-6.482284e+01	0.0	-6.723009e+01	-7.402780e+01	0.0	-5.721167e+01	-8.201723e+01	0.0	-4.625383e+01	-8.865993e+01	0.0	-3.453651e+01	-9.384684e+01	0.0	-2.225209e+01	-9.749279e+01	0.0	-9.602303e+00	-9.953791e+01	0.0	3.205158e+00	-9.994862e+01	0.0	1.595999e+01	-9.871818e+01	0.0	2.845276e+01	-9.586679e+01	0.0	4.047833e+01	-9.144126e+01	0.0	5.183926e+01	-8.551428e+01	0.0	6.234898e+01	-7.818315e+01	0.0	7.183494e+01	-6.956826e+01	0.0	8.014136e+01	-5.981105e+01	0.0	8.713187e+01	-4.907176e+01	0.0	9.269168e+01	-3.752670e+01	0.0	9.672949e+01	-2.536546e+01	0.0	9.917900e+01	-1.278772e+01	0.0	0.000000e+00	0.000000e+00	0.0	3.260805e-03	3.790403e-03	0.0	6.748225e-03	7.601212e-03	0.0	1.129707e-02	1.047197e-02	0.0	1.609318e-02	1.329345e-02	0.0	2.141246e-02	1.554865e-02	0.0	2.695605e-02	1.779586e-02	0.0	3.280825e-02	1.982917e-02	0.0	3.889026e-02	2.185306e-02	0.0	4.524205e-02	2.375836e-02	0.0	5.185890e-02	2.553976e-02	0.0	5.876004e-02	2.714079e-02	0.0	6.596741e-02	2.836603e-02	0.0	7.344642e-02	2.941724e-02	0.0	8.122112e-02	2.993833e-02	0.0	8.922907e-02	3.057873e-02	0.0	9.746812e-02	3.139692e-02	0.0	1.058504e-01	3.289690e-02	0.0	1.144305e-01	3.474225e-02	0.0	1.230281e-01	3.744936e-02	0.0	1.317850e-01	4.051858e-02	0.0	1.407252e-01	4.381956e-02	0.0	1.498290e-01	4.740494e-02	0.0	1.591676e-01	5.108274e-02	0.0	1.688860e-01	5.445377e-02	0.0	1.788635e-01	5.784327e-02	0.0	1.891517e-01	6.103446e-02	0.0	1.999399e-01	6.332870e-02	0.0	2.109640e-01	6.567308e-02	0.0	2.223641e-01	6.702277e-02	0.0	2.340787e-01	6.778753e-02	0.0	2.460210e-01	6.845029e-02	0.0	2.581987e-01	6.799030e-02	0.0	2.705897e-01	6.752226e-02	0.0	2.831570e-01	6.661587e-02	0.0	2.958986e-01	6.536411e-02	0.0	3.088263e-01	6.408046e-02	0.0	3.218958e-01	6.245551e-02	0.0	3.351325e-01	6.080976e-02	0.0	3.485175e-01	5.908313e-02	0.0	3.620399e-01	5.728007e-02	0.0	3.756950e-01	5.545935e-02	0.0	3.894749e-01	5.365694e-02	0.0	4.033621e-01	5.184049e-02	0.0	4.173546e-01	5.010426e-02	0.0	4.314391e-01	4.845296e-02	0.0	4.455896e-01	4.679391e-02	0.0	4.598297e-01	4.549113e-02	0.0	4.741070e-01	4.418578e-02	0.0	4.884273e-01	4.316624e-02	0.0	5.027749e-01	4.242227e-02	0.0	5.171155e-01	4.170173e-02	0.0	5.314524e-01	4.173085e-02	0.0	5.457519e-01	4.175989e-02	0.0	5.599851e-01	4.224428e-02	0.0	5.741402e-01	4.309926e-02	0.0	5.882128e-01	4.397489e-02	0.0	6.021591e-01	4.526033e-02	0.0	6.159977e-01	4.653584e-02	0.0	6.297165e-01	4.779002e-02	0.0	6.433027e-01	4.902374e-02	0.0	6.567445e-01	5.022976e-02	0.0	6.700621e-01	5.097841e-02	0.0	6.832115e-01	5.171761e-02	0.0	6.961927e-01	5.210995e-02	0.0	7.089955e-01	5.217118e-02	0.0	7.216009e-01	5.223146e-02	0.0	7.339817e-01	5.154839e-02	0.0	7.461494e-01	5.087313e-02	0.0	7.580545e-01	4.974995e-02	0.0	7.696963e-01	4.823764e-02	0.0	7.810875e-01	4.663521e-02	0.0	7.921168e-01	4.431560e-02	0.0	8.029101e-01	4.204561e-02	0.0	8.133617e-01	3.939270e-02	0.0	8.235527e-01	3.671280e-02	0.0	8.334903e-01	3.405149e-02	0.0	8.431756e-01	3.141879e-02	0.0	8.526356e-01	2.892380e-02	0.0	8.619099e-01	2.672355e-02	0.0	8.709385e-01	2.458161e-02	0.0	8.797753e-01	2.274053e-02	0.0	8.883774e-01	2.100045e-02	0.0	8.967455e-01	1.936413e-02	0.0	9.048909e-01	1.787963e-02	0.0	9.127953e-01	1.643907e-02	0.0	9.204661e-01	1.506939e-02	0.0	9.279023e-01	1.374758e-02	0.0	9.351040e-01	1.245461e-02	0.0	9.420729e-01	1.118064e-02	0.0	9.488169e-01	9.947322e-03	0.0	9.553343e-01	8.723088e-03	0.0	9.616353e-01	7.539509e-03	0.0	9.677203e-01	6.375141e-03	0.0	9.735971e-01	5.246812e-03	0.0	9.792680e-01	4.141788e-03	0.0	9.847398e-01	3.069448e-03	0.0	9.900162e-01	2.024313e-03	0.0	9.951016e-01	1.002551e-03	0.0	1.000000e+00	0.000000e+00	0.0	9.950047e-01	2.158746e-04	0.0	9.898197e-01	4.041143e-04	0.0	9.844396e-01	5.441904e-04	0.0	9.788602e-01	6.419627e-04	0.0	9.730768e-01	7.164828e-04	0.0	9.670845e-01	7.356855e-04	0.0	9.608792e-01	7.322209e-04	0.0	9.544562e-01	6.646258e-04	0.0	9.478111e-01	5.804491e-04	0.0	9.409409e-01	4.012279e-04	0.0	9.338398e-01	2.159835e-04	0.0	9.265073e-01	-7.492716e-05	0.0	9.189370e-01	-3.970442e-04	0.0	9.111263e-01	-7.609419e-04	0.0	9.030731e-01	-1.187158e-03	0.0	8.947721e-01	-1.626485e-03	0.0	8.862213e-01	-2.084248e-03	0.0	8.774182e-01	-2.556099e-03	0.0	8.683598e-01	-3.010702e-03	0.0	8.590444e-01	-3.439905e-03	0.0	8.494730e-01	-3.876529e-03	0.0	8.396439e-01	-4.284210e-03	0.0	8.295590e-01	-4.702494e-03	0.0	8.192320e-01	-5.360739e-03	0.0	8.086543e-01	-6.074727e-03	0.0	7.978613e-01	-7.178573e-03	0.0	7.868418e-01	-8.525032e-03	0.0	7.756219e-01	-1.017240e-02	0.0	7.642434e-01	-1.236095e-02	0.0	7.526332e-01	-1.459405e-02	0.0	7.409248e-01	-1.745207e-02	0.0	7.290081e-01	-2.040581e-02	0.0	7.169210e-01	-2.356358e-02	0.0	7.046940e-01	-2.701095e-02	0.0	6.922737e-01	-3.051284e-02	0.0	6.797166e-01	-3.423091e-02	0.0	6.669979e-01	-3.804474e-02	0.0	6.541168e-01	-4.191431e-02	0.0	6.410917e-01	-4.586174e-02	0.0	6.279243e-01	-4.985229e-02	0.0	6.146010e-01	-5.379682e-02	0.0	6.011397e-01	-5.771076e-02	0.0	5.875726e-01	-6.165548e-02	0.0	5.738176e-01	-6.528304e-02	0.0	5.599817e-01	-6.892731e-02	0.0	5.460206e-01	-7.234205e-02	0.0	5.319313e-01	-7.545272e-02	0.0	5.178048e-01	-7.857159e-02	0.0	5.035113e-01	-8.093582e-02	0.0	4.891977e-01	-8.323613e-02	0.0	4.748329e-01	-8.504913e-02	0.0	4.604143e-01	-8.622734e-02	0.0	4.460337e-01	-8.740244e-02	0.0	4.316614e-01	-8.720531e-02	0.0	4.173556e-01	-8.696889e-02	0.0	4.031739e-01	-8.606538e-02	0.0	3.891280e-01	-8.453629e-02	0.0	3.751955e-01	-8.299101e-02	0.0	3.614914e-01	-8.069481e-02	0.0	3.479217e-01	-7.842115e-02	0.0	3.345265e-01	-7.601686e-02	0.0	3.213136e-01	-7.350372e-02	0.0	3.082691e-01	-7.102300e-02	0.0	2.953780e-01	-6.871407e-02	0.0	2.826756e-01	-6.643895e-02	0.0	2.701408e-01	-6.438470e-02	0.0	2.577786e-01	-6.257200e-02	0.0	2.456312e-01	-6.079078e-02	0.0	2.336346e-01	-5.963397e-02	0.0	2.218626e-01	-5.853790e-02	0.0	2.103057e-01	-5.781529e-02	0.0	1.989614e-01	-5.760018e-02	0.0	1.878620e-01	-5.738972e-02	0.0	1.770124e-01	-5.761676e-02	0.0	1.664141e-01	-5.788765e-02	0.0	1.560678e-01	-5.803680e-02	0.0	1.459743e-01	-5.799977e-02	0.0	1.361368e-01	-5.796367e-02	0.0	1.266203e-01	-5.691229e-02	0.0	1.173663e-01	-5.576186e-02	0.0	1.084953e-01	-5.403353e-02	0.0	1.000622e-01	-5.146468e-02	0.0	9.187074e-02	-4.896942e-02	0.0	8.421858e-02	-4.573771e-02	0.0	7.683353e-02	-4.249779e-02	0.0	6.972666e-02	-3.924155e-02	0.0	6.293596e-02	-3.588014e-02	0.0	5.635916e-02	-3.262460e-02	0.0	4.989367e-02	-2.968291e-02	0.0	4.363173e-02	-2.685097e-02	0.0	3.748690e-02	-2.432244e-02	0.0	3.152516e-02	-2.193142e-02	0.0	2.580259e-02	-1.953156e-02	0.0	2.035421e-02	-1.705326e-02	0.0	1.529236e-02	-1.425484e-02	0.0	1.070217e-02	-1.110398e-02	0.0	6.470715e-03	-7.786701e-03	0.0	2.808624e-03	-4.111276e-03	0.0	6.958706e-01	7.673333e-02	0.0	6.961947e-01	6.506618e-02	0.0	7.067784e-01	7.104751e-02	0.0	8.709162e+01	2.729826e+01	0.0	8.235170e+01	3.609773e+01	0.0	7.796760e+01	2.682724e+01	0.0	7.264353e+01	-1.288231e+01	0.0	7.518875e+01	-2.487503e+01	0.0	8.614824e+01	-1.567643e+01	0.0	9.081099e+01	-4.902190e+00	0.0	4.705662e+01	2.779092e+01	0.0	5.622850e+01	3.050342e+01	0.0	5.125213e+01	3.586984e+01	0.0	7.289991e+01	3.424385e+01	0.0	6.886278e+01	-3.590334e+01	0.0	7.602245e+01	-4.345391e+01	0.0	8.117724e+01	-3.625340e+01	0.0	8.638708e+01	-2.793940e+01	0.0	4.261450e+01	1.706872e+01	0.0	5.447979e+01	2.154374e+01	0.0	6.424076e+01	-5.236256e+01	0.0	6.132353e+01	-5.965537e+01	0.0	6.911283e+01	-5.992201e+01	0.0	6.845796e+01	6.016205e+01	0.0	7.205441e+01	5.092851e+01	0.0	5.939405e+01	6.629869e+01	0.0	4.793816e+01	-6.479394e+01	0.0	4.554181e+01	-7.399970e+01	0.0	5.432862e+01	-7.238152e+01	0.0	6.847371e+01	-4.489305e+01	0.0	4.996090e+01	7.389910e+01	0.0	2.805563e+01	5.376712e+01	0.0	2.203418e+01	6.255418e+01	0.0	1.742166e+01	5.253140e+01	0.0	6.250726e+01	-6.743317e+01	0.0	2.700090e+01	7.500702e+01	0.0	4.004627e+01	8.042062e+01	0.0	3.174817e+01	8.603691e+01	0.0	3.453358e+01	-6.821816e+01	0.0	2.637017e+01	-7.922258e+01	0.0	3.826930e+01	-8.083731e+01	0.0	-4.181254e+00	4.478295e+01	0.0	-5.220383e+00	5.315517e+01	0.0	-1.138321e+01	4.875695e+01	0.0	1.849133e-01	8.305006e-02	0.0	1.834604e-01	7.303973e-02	0.0	1.946202e-01	7.850419e-02	0.0	5.414505e-01	5.386078e-02	0.0	5.366658e-01	6.790069e-02	0.0	5.292756e-01	5.620285e-02	0.0	9.120182e-01	2.371309e-01	0.0	9.343563e-01	3.673184e-01	0.0	8.329985e-01	3.200309e-01	0.0	1.431820e-01	-7.818955e-02	0.0	1.540955e-01	-8.887734e-02	0.0	1.588141e-01	-7.625050e-02	0.0	1.582152e-01	-6.553362e-02	0.0	1.513570e-01	-6.359151e-02	0.0	7.742167e-01	-2.711423e-02	0.0	7.824389e-01	-2.305369e-02	0.0	7.736998e-01	-1.874556e-02	0.0	7.259719e-01	-2.888157e-02	0.0	7.044216e-01	-5.178262e-02	0.0	6.926930e-01	-4.159223e-02	0.0	6.892447e-01	-5.547200e-02	0.0	5.676640e-01	7.414576e-02	0.0	5.669528e-01	5.630622e-02	0.0	5.819441e-01	6.540363e-02	0.0	6.401437e-01	1.606767e-01	0.0	5.905230e-01	1.709416e-01	0.0	6.091017e-01	1.312744e-01	0.0	9.527870e-01	-4.333137e-03	0.0	9.363013e-01	-1.170627e-02	0.0	9.365412e-01	-4.704515e-03	0.0	9.302433e-01	-5.791012e-03	0.0	9.631434e-01	-3.608621e-03	0.0	9.177656e-01	4.095402e-02	0.0	9.288509e-01	4.36
[...]
POINT_DATA 1838

SCALARS Density double 1
LOOKUP_TABLE default
1.291232e+00	1.291335e+00	1.291965e+00	1.292257e+00	1.292150e+00	1.292076e+00	1.292054e+00	1.292023e+00	1.291978e+00	1.291938e+00	1.291910e+00	1.291899e+00	1.291914e+00	1.291962e+00	1.292033e+00	1.292106e+00	1.292164e+00	1.292211e+00	1.292245e+00	1.292270e+00	1.292287e+00	1.292301e+00	1.292310e+00	1.292319e+00	1.292326e+00	1.292334e+00	1.292343e+00	1.292355e+00	1.292369e+00	1.292388e+00	1.292411e+00	1.292442e+00	1.292479e+00	1.292528e+00	1.292583e+00	1.292639e+00	1.292701e+00	1.292740e+00	1.292740e+00	1.292715e+00	1.292668e+00	1.292608e+00	1.292545e+00	1.292483e+00	1.292419e+00	1.292373e+00	1.292404e+00	1.292272e+00	1.291755e+00	1.536872e+00	1.188078e+00	1.147144e+00	1.075108e+00	1.056976e+00	1.047717e+00	1.069224e+00	1.072396e+00	1.070975e+00	1.052789e+00	1.042292e+00	1.039040e+00	1.077584e+00	1.147815e+00	1.231421e+00	1.303639e+00	1.344039e+00	1.359060e+00	1.360516e+00	1.349901e+00	1.309744e+00	1.278027e+00	1.237148e+00	1.170678e+00	1.114406e+00	1.065547e+00	9.660427e-01	8.958477e-01	8.316007e-01	7.416972e-01	7.033678e-01	6.484146e-01	5.991792e-01	5.825331e-01	5.590873e-01	5.494517e-01	5.420632e-01	5.335298e-01	5.343962e-01	5.368404e-01	5.356413e-01	5.447228e-01	5.577994e-01	6.362377e-01	9.418334e-01	1.161892e+00	1.179200e+00	1.187366e+00	1.195816e+00	1.207602e+00	1.207716e+00	1.217876e+00	1.219301e+00	1.212234e+00	1.214454e+00	1.200770e+00	1.190928e+00	1.177736e+00	1.155587e+00	1.137159e+00	1.118060e+00	1.088923e+00	1.067789e+00	1.052157e+00	1.026810e+00	1.017460e+00	9.951004e-01	9.848763e-01	9.929846e-01	9.893084e-01	1.010037e+00	1.023553e+00	1.052633e+00	1.092487e+00	1.119460e+00	1.153120e+00	1.176616e+00	1.196433e+00	1.215779e+00	1.224411e+00	1.231390e+00	1.238400e+00	1.238242e+00	1.242846e+00	1.244196e+00	1.244730e+00	1.247302e+00	1.248926e+00	1.251158e+00	1.254839e+00	1.258127e+00	1.262173e+00	1.266703e+00	1.271127e+00	1.276408e+00	1.281457e+00	1.288835e+00	1.297881e+00	1.305879e+00	1.304078e+00	1.392787e+00	1.362723e+00	1.365179e+00	1.364663e+00	1.366109e+00	1.367099e+00	1.367453e+00	1.368890e+00	1.368902e+00	1.369101e+00	1.369788e+00	1.367686e+00	1.367991e+00	1.366435e+00	1.364951e+00	1.364618e+00	1.363918e+00	1.363770e+00	1.365958e+00	1.368524e+00	1.372170e+00	1.381010e+00	1.385715e+00	1.392426e+00	1.398060e+00	1.398461e+00	1.403296e+00	1.397989e+00	1.396208e+00	1.392104e+00	1.379543e+00	1.374904e+00	1.363208e+00	1.352687e+00	1.342026e+00	1.328087e+00	1.314608e+00	1.300222e+00	1.283440e+00	1.265525e+00	1.251539e+00	1.227817e+00	1.213609e+00	1.204912e+00	1.182581e+00	9.236667e-01	6.924911e-01	6.675566e-01	6.921468e-01	7.073402e-01	7.511719e-01	7.758428e-01	8.350597e-01	9.035369e-01	9.391728e-01	1.004081e+00	1.043460e+00	1.093727e+00	1.153391e+00	1.185603e+00	1.221843e+00	1.256503e+00	1.279255e+00	1.301256e+00	1.321793e+00	1.331214e+00	1.351375e+00	1.360727e+00	1.360883e+00	1.372662e+00	1.360743e+00	1.352057e+00	1.339747e+00	1.303389e+00	1.270508e+00	1.236856e+00	1.156609e+00	1.112593e+00	1.087496e+00	1.061280e+00	1.119742e+00	1.167515e+00	1.222875e+00	1.300256e+00	1.338776e+00	1.382404e+00	1.428283e+00	1.453046e+00	1.473892e+00	1.490690e+00	1.495461e+00	1.503118e+00	1.510661e+00	1.525557e+00	1.559020e+00	1.593451e+00	1.612669e+00	1.702116e+00	1.059350e+00	1.046605e+00	1.042126e+00	1.292109e+00	1.292147e+00	1.292054e+00	1.292084e+00	1.292320e+00	1.292064e+00	1.291609e+00	1.291994e+00	1.292101e+00	1.291995e+00	1.292103e+00	1.292373e+00	1.292364e+00	1.292334e+00	1.292321e+00	1.291977e+00	1.292047e+00	1.292439e+00	1.292481e+00	1.292453e+00	1.292036e+00	1.292060e+00	1.292003e+00	1.292574e+00	1.292612e+00	1.292559e+00	1.292387e+00	1.291961e+00	1.291772e+00	1.291750e+00	1.291630e+00	1.292507e+00	1.291838e+00	1.291919e+00	1.291890e+00	1.292674e+00	1.292724e+00	1.292669e+00	1.291476e+00	1.291610e+00	1.291654e+00	1.057015e+00	1.050012e+00	9.887215e-01	1.215858e+00	1.212805e+00	1.217297e+00	1.245889e+00	1.251004e+00	1.217449e+00	1.212306e+00	1.258635e+00	1.259610e+00	1.252303e+00	1.215534e+00	1.396358e+00	1.398595e+00	1.397397e+00	1.371721e+00	1.354369e+00	1.343847e+00	1.341055e+00	1.200371e+00	1.205058e+00	1.192711e+00	1.161812e+00	1.189997e+00	1.171170e+00	1.369545e+00	1.371683e+00	1.370321e+00	1.370155e+00	1.368099e+00	1.247459e+00	1.251631e+00	1.248575e+00	1.248383e+00	1.246208e+00	1.244662e+00	1.243062e+00	1.373481e+00	1.369364e+00	1.370113e+00	1.314127e+00	1.312373e+00	1.321196e+00	1.307574e+00	1.304885e+00	1.323199e+00	1.366715e+00	1.367940e+00	1.503567e+00	1.497370e+00	1.434616e+00	1.439301e+00	1.466105e+00	1.508747e+00	1.525099e+00	1.506508e+00	1.650796e+00	1.617278e+00	1.458832e+00	1.456531e+00	1.485896e+00	1.413204e+00	1.385892e+00	1.395469e+00	1.526053e+00	1.518740e+00	1.374560e+00	1.364269e+00	1.364341e+00	1.355235e+00	1.367275e+00	1.380628e+00	1.374213e+00	1.331149e+00	1.386922e+00	1.315748e+00	1.312072e+00	1.299898e+00	1.334753e+00	1.325645e+00	1.390441e+00	1.392544e+00	1.285272e+00	1.269848e+00	1.374624e+00	1.379535e+00	1.252003e+00	1.259560e+00	1.244318e+00	1.399728e+00	1.398538e+00	1.256852e+00	1.255328e+00	1.393865e+00	1.390229e+00	1.394365e+00	1.245332e+00	1.235503e+00	1.235418e+00	1.397661e+00	1.244021e+00	1.214955e+00	1.390143e+00	1.385919e+00	1.217451e+00	1.220660e+00	1.102114e+00	1.158409e+00	1.148140e+00	9.753896e-01	1.038990e+00	1.328287e+00	1.292800e+00	1.320277e+00	1.215040e+00	1.207326e+00	1.164649e+00	1.103503e+00	1.110209e+00	9.202626e-01	9.087189e-01	8.415058e-01	1.129235e+00	1.201128e+00	1.156289e+00	1.263398e+00	1.054031e+00	1.010697e+00	9.057693e-01	1.262706e+00	1.269125e+00	1.294924e+00	6.243141e-01	6.356488e-01	7.420931e-01	7.101696e-01	6.584605e-01	1.339424e+00	1.324294e+00	1.316567e+00	1.258736e+00	1.262205e+00	1.240714e+00	1.238544e+00	1.241027e+00	1.266354e+00	1.280501e+00	1.271855e+00	1.272265e+00	1.225923e+00	1.217435e+00	1.225936e+00	1.285143e+00	1.279665e+00	1.280021e+00	1.291496e+00	1.299048e+00	1.290372e+00	1.286810e+00	1.290809e+00	1.236339e+00	1.300404e+00	1.327052e+00	1.305808e+00	1.299827e+00	1.281165e+00	1.284708e+00	1.286922e+00	1.284899e+00	1.283172e+00	1.285604e+00	1.284934e+00	1.286303e+00	1.290208e+00	1.273822e+00	1.280817e+00	1.293088e+00	1.289086e+00	1.295253e+00	1.292161e+00	1.287288e+00	1.292247e+00	1.291426e+00	1.291267e+00	1.291157e+00	1.291862e+00	1.291860e+00	1.291806e+00	1.230583e+00	1.186841e+00	1.194437e+00	1.202384e+00	1.209395e+00	1.220519e+00	1.214767e+00	1.198554e+00	1.201105e+00	1.096316e+00	1.090594e+00	1.117498e+00	1.291771e+00	1.291703e+00	1.125887e+00	1.109412e+00	1.132440e+00	1.089928e+00	1.056167e+00	1.085419e+00	1.243081e+00	1.263451e+00	1.113129e+00	1.097757e+00	1.169246e+00	1.185058e+00	1.205763e+00	1.204439e+00	1.192378e+00	1.195603e+00	1.113164e+00	1.130998e+00	1.052822e+00	1.192062e+00	1.170126e+00	1.130531e+00	1.146162e+00	1.030264e+00	1.217760e+00	1.207745e+00	1.214899e+00	1.206377e+00	1.065958e+00	6.321632e-01	5.849594e-01	5.929372e-01	1.001634e+00	1.019933e+00	1.194549e+00	1.202435e+00	1.200320e+00	1.167676e+00	1.183106e+00	1.157471e+00	1.374040e+00	1.377185e+00	1.375368e+00	1.373351e+00	1.372105e+00	1.368678e+00	1.370112e+00	1.373796e+00	1.375877e+00	1.372011e+00	1.123149e+00	1.099594e+00	1.294985e+00	1.307328e+00	1.276657e+00	1.349931e+00	1.350893e+00	1.359286e+00	1.346152e+00	1.354529e+00	1.347500e+00	1.370303e+00	1.298558e+00	1.316926e+00	1.316926e+00	1.384573e+00	1.381998e+00	1.373389e+00	1.378311e+00	1.291447e+00	1.284353e+00	1.295168e+00	7.817587e-01	7.463463e-01	8.029603e-01	6.923657e-01	7.319332e-01	7.178603e-01	9.403572e-01	9.591296e-01	7.986666e-01	1.220050e+00	1.179276e+00	1.164296e+00	9.205717e-01	9.652365e-01	9.101270e-01	8.451650e-01	8.955044e-01	1.098138e+00	1.021200e+00	1.045913e+00	1.163756e+00	1.205448e+00	1.218471e+00	1.147631e+00	1.137151e+00	1.177988e+00	1.292746e+00	1.292707e+00	1.108414e+00	1.114582e+00	1.158167e+00	1.099080e+00	1.215310e+00	1.198883e+00	1.214825e+00	1.292705e+00	1.292692e+00	1.292751e+00	1.235119e+00	1.270226e+00	1.168333e+00	1.205253e+00	1.162574e+00	1.310960e+00	1.276999e+00	1.325037e+00	1.322295e+00	1.316384e+00	1.311654e+00	1.279010e+00	1.298402e+00	1.296039e+00	1.263062e+00	5.612600e-01	6.122295e-01	6.081460e-01	1.020824e+00	8.993990e-01	8.762146e-01	1.193292e+00	1.184238e+00	1.157593e+00	1.266813e+00	1.249240e+00	1.225269e+00	1.437204e+00	1.449029e+00	1.423347e+00	1.297217e+00	1.292638e+00	1.292612e+00	1.307197e+00	1.303673e+00	1.303892e+00	1.292822e+00	1.292825e+00	1.292859e+00	1.460389e+00	1.478635e+00	1.491139e+00	1.509987e+00	1.293275e+00	1.293043e+00	1.293072e+00	1.317945e+00	1.326542e+00	1.331899e+00	1.292510e+00	1.292574e+00	1.292592e+00	1.300545e+00	1.306128e+00	1.303172e+00	1.292552e+00	1.292499e+00	1.293262e+00	1.293571e+00	1.292294e+00	1.292418e+00	1.292325e+00	1.292457e+00	1.292439e+00	1.292437e+00	1.292393e+00	1.292403e+00	1.292384e+00	1.292366e+00	1.292340e+00	1.292332e+00	1.292305e+00	1.292320e+00	1.292328e+00	1.292286e+00	1.292262e+00	1.292262e+00	1.292150e+00	1.293003e+00	1.292161e+00	1.157178e+00	1.121375e+00	1.181714e+00	1.292155e+00	1.292118e+00	1.292034e+00	1.291935e+00	1.292200e+00	1.291743e+00	1.292243e+00	1.292213e+00	1.292135e+00	1.145480e+00	1.206553e+00	1.256784e+00	1.345536e+00	1.343343e+00	1.284544e+00	1.287024e+00	1.282447e+00	1.238888e+00	1.241285e+00	1.292005e+00	1.292066e+00	1.280873e+00	1.276594e+00	1.284195e+00	6.544933e-01	6.054009e-01	5.573937e-01	5.793118e-01	1.292002e+00	1.292072e+00	6.718456e-01	1.188944e+00	1.115386e+00	6.467160e-01	5.729811e-01	1.291960e+00	5.419574e-01	5.456043e-01	5.446493e-01	1.109846e+00	1.290315e+00	1.291447e+00	7.974653e-01	7.831014e-01	1.055658e+00	1.297270e+00	1.291363e+00	1.294109e+00	1.292347e+00	1.292356e+00	1.351931e+00	1.291868e+00	1.292118e+00	1.291864e+00	1.293288e+00	1.293224e+00	1.294039e+00	1.368041e+00	1.367190e+00	1.292771e+00	1.292955e+00	1.293283e+00	1.292431e+00	1.292413e+00	1.292704e+00	1.292901e+00	1.292616e+00	1.292231e+00	1.292435e+00	1.292764e+00	1.292766e+00	1.293076e+00	1.291897e+00	1.291709e+00	1.291451e+00	1.291615e+00	1.291901e+00	1.291672e+00	1.292399e+00	1.291737e+00	1.291801e+00	1.292100e+00	1.292691e+00	1.292794e+00	1.292837e+00	1.292202e+00	1.292183e+00	1.292049e+00	1.292347e+00	1.291467e+00	1.292277e+00	1.292995e+00	1.293332e+00	1.502448e+00	1.466036e+00	1.461187e+00	1.291835e+00	1.291762e+00	1.291603e+00	1.292078e+00	1.291860e+00	1.291630e+00	1.288745e+00	1.289944e+00	1.285675e+00	1.290469e+00	1.288691e+00	1.292288e+00	1.292527e+00	1.292436e+00	1.292374e+00	1.292392e+00	1.292329e+00	1.292342e+00	1.292304e+00	1.292283e+00	1.292274e+00	1.292236e+00	1.291900e+00	1.291869e+00	1.291907e+00	1.291970e+00	1.292784e+00	1.292777e+00	1.292790e+00	1.292878e+00	1.292852e+00	1.292092e+00	1.292042e+00	1.291980e+00	1.291928e+00	1.291825e+00	1.291941e+00	1.291602e+00	1.291532e+00	1.292279e+00	1.292345e+00	1.292777e+00	1.292632e+00	1.292826e+00	1.292824e+00	1.292531e+00	1.292543e+00	1.292616e+00	1.292102e+00	1.291800e+00	1.292367e+00	1.226212e+00	1.267992e+00	1.254612e+00	1.230784e+00	1.291431e+00	1.291297e+00	1.304104e+00	1.292959e+00	1.292926e+00	1.291781e+00	1.291658e+00	1.292866e+00	1.292960e+00	1.291959e+00	1.292395e+00	1.292451e+00	1.292603e+00	1.291592e+00	1.291538e+00	1.291669e+00	1.292701e+00	1.292216e+00	1.293483e+00	1.294249e+00	1.293601e+00	1.294926e+00	1.294197e+00	1.294474e+00	1.291813e+00	1.291950e+00	1.292906e+00	1.293273e+00	1.293004e+00	1.292238e+00	1.292361e+00	1.292351e+00	1.292717e+00	1.291833e+00	1.292304e+00	1.292431e+00	1.292479e+00	1.292457e+00	1.292069e+00	1.292142e+00	1.292202e+00	1.292773e+00	1.291730e+00	1.291775e+00	1.292736e+00	1.291732e+00	1.291649e+00	1.292943e+00	1.292943e+00	1.292363e+00	1.292422e+00	1.292524e+00	1.292592e+00	1.292498e+00	1.292801e+00	1.291205e+00	1.292310e+00	1.291914e+00	1.291753e+00	1.292579e+00	1.291258e+00	1.291914e+00	1.292741e+00	1.292722e+00	1.290968e+00	1.289930e+00	1.290818e+00	1.292355e+00	1.292612e+00	1.292515e+00	1.292188e+00	1.291971e+00	1.292491e+00	1.292543e+00	1.292593e+00	1.291753e+00	1.290326e+00	1.291745e+00	1.291681e+00	1.292471e+00	1.291927e+00	1.291863e+00	1.291840e+00	1.292758e+00	1.292402e+00	1.150085e+00	1.179686e+00	1.158986e+00	1.292654e+00	1.292982e+00	1.292937e+00	1.292481e+00	1.293748e+00	1.293361e+00	1.294131e+00	1.292542e+00	1.290887e+00	1.291920e+00	1.292831e+00	1.293096e+00	1.291576e+00	1.290932e+00	1.295327e+00	1.294331e+00	1.291715e+00	1.294926e+00	1.294048e+00	1.192551e+00	1.217796e+00	1.144997e+00	1.290805e+00	1.289357e+00	1.295264e+00	1.529518e+00	1.455778e+00	1.290090e+00	1.294024e+00	1.292701e+00	1.295391e+00	1.293055e+00	1.293992e+00	1.288628e+00	1.290733e+00	1.290687e+00	1.213113e+00	1.208408e+00	1.289689e+00	1.290629e+00	1.291160e+00	1.293264e+00	1.294180e+00	1.291776e+00	1.295049e+00	1.366745e+00	1.365656e+00	1.365867e+00	1.292401e+00	1.287293e+00	1.295590e+00	1.296129e+00	1.324286e+00	1.280160e+00	1.284214e+00	1.297819e+00	1.297953e+00	1.299671e+00	1.296741e+00	1.297319e+00	1.295269e+00	1.296839e+00	1.298904e+00	1.295484e+00	1.310417e+00	1.320742e+00	1.334616e+00	1.296406e+00	1.295527e+00	1.296263e+00	1.299287e+00	1.286857e+00	1.287563e+00	1.287900e+00	1.286946e+00	1.302919e+00	1.300019e+00	1.292199e+00	1.295870e+00	1.297005e+00	1.301148e+00	1.296836e+00	1.288890e+00	1.288744e+00	1.288493e+00	1.266908e+00	1.269870e+00	1.309511e+00	1.305958e+00	1.302508e+00	1.287103e+00	1.281901e+00	1.298627e+00	1.298789e+00	1.294005e+00	1.296428e+00	1.298576e+00	1.270678e+00	1.272172e+00	1.339738e+00	1.301659e+00	1.299048e+00	1.279772e+00	1.273690e+00	1.282373e+00	1.286245e+00	1.259686e+00	1.282129e+00	1.286855e+00	1.298227e+00	1.297688e+00	1.324204e+00	1.298825e+00	1.301024e+00	1.299943e+00	1.263325e+00	1.277478e+00	1.296823e+00	1.360633e+00	1.360734e+00	1.355070e+00	1.282083e+00	1.284380e+00	1.231651e+00	1.231845e+00	1.278133e+00	1.271839e+00	1.298914e+00	1.290559e+00	1.284428e+00	1.285027e+00	1.282708e+00	1.252648e+00	1.298803e+00	1.299076e+00	1.309156e+00	1.314742e+00	1.302239e+00	1.285306e+00	1.262719e+00	1.241748e+00	1.233383e+00	1.267440e+00	1.267244e+00	1.593733e+00	1.625946e+00	1.592696e+00	1.296874e+00	1.301580e+00	1.290467e+00	1.308864e+00	1.304445e+00	1.307588e+00	1.308977e+00	1.286249e+00	1.341679e+00	1.349028e+00	1.470610e+00	1.408219e+00	1.405885e+00	1.285813e+00	1.277697e+00	1.361613e+00	1.304470e+00	1.311212e+00	1.266036e+00	1.321976e+00	1.296828e+00	1.283011e+00	1.102508e+00	1.309276e+00	1.319375e+00	1.314633e+00	1.303983e+00	1.272727e+00	1.234408e+00	1.280782e+00	1.273919e+00	1.294110e+00	1.308503e+00	1.323681e+00	1.313264e+00	1.175527e+00	1.238065e+00	1.248710e+00	1.324160e+00	1.283637e+00	1.288643e+00	1.310576e+00	1.319049e+00	1.265883e+00	1.258616e+00	1.298382e+00	1.284259e+00	1.271484e+00	1.317026e+00	1.330998e+00	1.220310e+00	1.148124e+00	1.292996e+00	1.272782e+00	1.300188e+00	1.308585e+00	1.232941e+00	1.132118e+00	1.205300e+00	7.718824e-01	1.286177e+00	1.369886e+00	1.361494e+00	1.349550e+00	1.389980e+00	1.416069e+00	1.415289e+00	1.336809e+00	1.353821e+00	1.314253e+00	1.317757e+00	1.257950e+00	9.547068e-01	9.489810e-01	1.287669e+00	1.298179e+00	1.197636e+00	1.214625e+00	1.132603e+00	1.204961e+00	1.333136e+00	1.379136e+00	1.374252e+00	1.374454e+00	1.142243e+00	1.325794e+00	1.314679e+00	1.300477e+00	1.411479e+00	1.373420e+00	1.397108e+00	1.346540e+00	1.248750e+00	1.280120e+00	1.201958e+00	1.169227e+00	1.324709e+00	1.141605e+00	1.093384e+00	1.186703e+00	1.338663e+00	1.342265e+00	1.335184e+00	1.325397e+00	1.180625e+00	1.242924e+00	7.091619e-01	1.176040e+00	1.328928e+00	1.333990e+00	7.737286e-01	1.360670e+00	1.402121e+00	1.371019e+00	1.339260e+00	1.356333e+00	1.294525e+00	1.283343e+00	1.302266e+00	1.249798e+00	1.138436e+00	1.119184e+00	1.024661e+00	8.745669e-01	8.632380e-01	7.541557e-01	1.346136e+00	1.318682e+00	1.349304e+00	9.915186e-01	1.380451e+00	1.320126e+00	1.349484e+00	1.334495e+00	1.356068e+00	9.724054e-01	1.002921e+00	8.791971e-01	8.623901e-01	1.372734e+00	1.235645e+00	1.205681e+00	1.278252e+00	8.884379e-01	9.312605e-01	9.963144e-01	6.682037e-01	1.283676e+00	1.339843e+00	1.344599e+00	1.313581e+00	1.568325e+00	1.590392e+00	1.383547e+00	1.209964e+00	1.156595e+00	1.126325e+00	1.203782e+00	1.051914e+00	1.467213e+00	1.158561e+00	1.271573e+00	1.297265e+00	1.273945e+00	1.275911e+00	1.286184e+00	1.384485e+00	1.353353e+00	1.348990e+00	1.278793e+00	1.297749e+00	1.237564e+00	1.358328e+00	1.357590e+00	1.368642e+00	1.370697e+00	1.102183e+00	1.378687e+00	1.330977e+00	1.218394e+00	1.210880e+00	1.196765e+00	1.250699e+00	1.247641e+00	1.261301e+00	1.261399e+00	1.327087e+00	1.364737e+00	1.002658e+00	1.098362e+00	1.158322e+00	1.144445e+00	1.313270e+00	1.273240e+00	1.281249e+00	1.466987e+00	1.431159e+00	1.167622e+00	1.074850e+00	1.106011e+00	1.240892e+00	1.257635e+00	1.361064e+00	1.385916e+00	1.353797e+00	1.071013e+00	9.617274e-01	8.468709e-01	5.516715e-01	5.761713e-01	1.348502e+00	9.878263e-01	1.368951e+00	1.037343e+00	1.059373e+00	1.061596e+00	1.341424e+00	1.310387e+00	1.315811e+00	1.415647e+00	1.386083e+00	1.376414e+00	1.356008e+00	1.353580e+00	1.396876e+00	1.170653e+00	1.160741e+00	7.920044e-01	7.035115e-01	6.520654e-01	1.244372e+00	1.255898e+00	1.252956e+00	1.255529e+00	1.256627e+00	1.265653e+00	1.255807e+00	1.090186e+00	1.194966e+00	1.179400e+00	1.116418e+00	9.720585e-01	1.028529e+00	9.420779e-01	1.115043e+00	1.132344e+00	1.108079e+00	1.144838e+00	1.165103e+00	1.439229e+00	1.415148e+00	1.280652e+00	1.283960e+00	1.282593e+00	1.318317e+00	1.317200e+00	1.302197e+00	1.305712e+00	1.349375e+00	1.324600e+00	1.346636e+00	7.953128e-01	1.278603e+00	1.270267e+00	1.322210e+00	1.404905e+00	1.393867e+00	1.496327e+00	1.469693e+00	1.501219e+00	1.479985e+00	1.196352e+00	1.229730e+00	1.222252e+00	1.245924e+00	1.300510e+00	1.330851e+00	1.328980e+00	1.338583e+00	8.459056e-01	8.471969e-01	7.700781e-01	1.038141e+00	1.298662e+00	1.304392e+00	1.280278e+00	1.200721e+00	1.213130e+00	1.163142e+00	1.166033e+00	1.069993e+00	1.135022e+00	1.110735e+00	1.424848e+00	1.370579e+00	1.370277e+00	1.371598e+00	1.370479e+00	1.366276e+00	1.363984e+00	5.614148e-01	1.283850e+00	1.286091e+00	1.289520e+00	1.207424e+00	1.374079e+00	1.387778e+00	7.027268e-01	1.288717e+00	1.275983e+00	1.239594e+00	1.519558e+00	1.518265e+00	1.443029e+00	1.136658e+00	1.254049e+00	1.164920e+00	1.199990e+00	1.196067e+00	1.197100e+00	1.280117e+00	1.263354e+00	1.302879e+00	1.272147e+00	1.184663e+00	1.321138e+00	1.386899e+00	1.385691e+00	1.394359e+00	1.274338e+00	1.277092e+00	1.280618e+00	7.939245e-01	8.359615e-01	8.537459e-01	1.445936e+00	9.222400e-01	1.378711e+00	1.373335e+00	1.188405e+00	1.227300e+00	1.243085e+00	1.089047e+00	1.314695e+00	1.105975e+00	1.338184e+00	1.323772e+00	1.338226e+00	1.281141e+00	1.263009e+00	1.282740e+00	1.284928e+00	1.264409e+00	1.434703e+00	1.305875e+00	1.183231e+00	1.225270e+00	1.083014e+00	1.091120e+00	1.057073e+00	1.044282e+00	1.015622e+00	1.019696e+00	1.004593e+00	1.330963e+00	1.345002e+00	1.405117e+00	1.372174e+00	1.290299e+00	1.310085e+00	1.282898e+00	1.297447e+00	1.345143e+00	1.132912e+00	1.091443e+00	1.375381e+00	1.374633e+00	9.020949e-01	1.046897e+00	1.131595e+00	1.196524e+00	1.240647e+00	1.616782e+00	1.196937e+00	1.201367e+00	1.190771e+00	1.178844e+00	1.395025e+00	1.393062e+00	1.388488e+00	1.398075e+00	1.396470e+00	1.396870e+00	1.325524e+00	1.337457e+00	1.332308e+00	1.339496e+00	1.384383e+00	1.384648e+00	1.380570e+00	1.379504e+00	1.339015e+00	1.314043e+00	1.248668e+00	1.248126e+00	1.275723e+00	1.289966e+00	1.297995e+00	5.451924e-01	1.150722e+00	1.169609e+00	1.129199e+00	1.145055e+00	1.301064e+00	1.323513e+00	5.626160e-01	5.554427e-01	8.180651e-01	9.135321e-01	1.087562e+00	1.252554e+00	1.242283e+00	1.244308e+00	1.234858e+00	7.501982e-01	9.086878e-01	1.144449e+00	1.362242e+00	1.309109e+00	1.379437e+00	1.380663e+00	1.375633e+00	1.376769e+00	1.276462e+00	1.272780e+00	1.280502e+00	7.472154e-01	1.216577e+00	1.232181e+00	1.180489e+00	1.187886e+00	1.378577e+00	1.508969e+00	1.471122e+00	1.344551e+00	1.337403e+00	1.347138e+00	1.337038e+00	1.449236e+00	1.002590e+00	8.437308e-01	7.506662e-01	1.364517e+00	1.351034e+00	1.303822e+00	1.312151e+00	9.831577e-01	9.389472e-01	9.955290e-01	1.047821