# vtk DataFile Version 3.0
vtk output
ASCII
DATASET UNSTRUCTURED_GRID
POINTS 198 double
0.000000e+00	0.000000e+00	0.0	3.260805e-03	3.790403e-03	0.0	6.748225e-03	7.601212e-03	0.0	1.129707e-02	1.047197e-02	0.0	1.609318e-02	1.329345e-02	0.0	2.141246e-02	1.554865e-02	0.0	2.695605e-02	1.779586e-02	0.0	3.280825e-02	1.982917e-02	0.0	3.889026e-02	2.185306e-02	0.0	4.524205e-02	2.375836e-02	0.0	5.185890e-02	2.553976e-02	0.0	5.876004e-02	2.714079e-02	0.0	6.596741e-02	2.836603e-02	0.0	7.344642e-02	2.941724e-02	0.0	8.122112e-02	2.993833e-02	0.0	8.922907e-02	3.057873e-02	0.0	9.746812e-02	3.139692e-02	0.0	1.058504e-01	3.289690e-02	0.0	1.144305e-01	3.474225e-02	0.0	1.230281e-01	3.744936e-02	0.0	1.317850e-01	4.051858e-02	0.0	1.407252e-01	4.381956e-02	0.0	1.498290e-01	4.740494e-02	0.0	1.591676e-01	5.108274e-02	0.0	1.688860e-01	5.445377e-02	0.0	1.788635e-01	5.784327e-02	0.0	1.891517e-01	6.103446e-02	0.0	1.999399e-01	6.332870e-02	0.0	2.109640e-01	6.567308e-02	0.0	2.223641e-01	6.702277e-02	0.0	2.340787e-01	6.778753e-02	0.0	2.460210e-01	6.845029e-02	0.0	2.581987e-01	6.799030e-02	0.0	2.705897e-01	6.752226e-02	0.0	2.831570e-01	6.661587e-02	0.0	2.958986e-01	6.536411e-02	0.0	3.088263e-01	6.408046e-02	0.0	3.218958e-01	6.245551e-02	0.0	3.351325e-01	6.080976e-02	0.0	3.485175e-01	5.908313e-02	0.0	3.620399e-01	5.728007e-02	0.0	3.756950e-01	5.545935e-02	0.0	3.894749e-01	5.365694e-02	0.0	4.033621e-01	5.184049e-02	0.0	4.173546e-01	5.010426e-02	0.0	4.314391e-01	4.845296e-02	0.0	4.455896e-01	4.679391e-02	0.0	4.598297e-01	4.549113e-02	0.0	4.741070e-01	4.418578e-02	0.0	4.884273e-01	4.316624e-02	0.0	5.027749e-01	4.242227e-02	0.0	5.171155e-01	4.170173e-02	0.0	5.314524e-01	4.173085e-02	0.0	5.457519e-01	4.175989e-02	0.0	5.599851e-01	4.224428e-02	0.0	5.741402e-01	4.309926e-02	0.0	5.882128e-01	4.397489e-02	0.0	6.021591e-01	4.526033e-02	0.0	6.159977e-01	4.653584e-02	0.0	6.297165e-01	4.779002e-02	0.0	6.433027e-01	4.902374e-02	0.0	6.567445e-01	5.022976e-02	0.0	6.700621e-01	5.097841e-02	0.0	6.832115e-01	5.171761e-02	0.0	6.961927e-01	5.210995e-02	0.0	7.089955e-01	5.217118e-02	0.0	7.216009e-01	5.223146e-02	0.0	7.339817e-01	5.154839e-02	0.0	7.461494e-01	5.087313e-02	0.0	7.580545e-01	4.974995e-02	0.0	7.696963e-01	4.823764e-02	0.0	7.810875e-01	4.663521e-02	0.0	7.921168e-01	4.431560e-02	0.0	8.029101e-01	4.204561e-02	0.0	8.133617e-01	3.939270e-02	0.0	8.235527e-01	3.671280e-02	0.0	8.334903e-01	3.405149e-02	0.0	8.431756e-01	3.141879e-02	0.0	8.526356e-01	2.892380e-02	0.0	8.619099e-01	2.672355e-02	0.0	8.709385e-01	2.458161e-02	0.0	8.797753e-01	2.274053e-02	0.0	8.883774e-01	2.100045e-02	0.0	8.967455e-01	1.936413e-02	0.0	9.048909e-01	1.787963e-02	0.0	9.127953e-01	1.643907e-02	0.0	9.204661e-01	1.506939e-02	0.0	9.279023e-01	1.374758e-02	0.0	9.351040e-01	1.245461e-02	0.0	9.420729e-01	1.118064e-02	0.0	9.488169e-01	9.947322e-03	0.0	9.553343e-01	8.723088e-03	0.0	9.616353e-01	7.539509e-03	0.0	9.677203e-01	6.375141e-03	0.0	9.735971e-01	5.246812e-03	0.0	9.792680e-01	4.141788e-03	0.0	9.847398e-01	3.069448e-03	0.0	9.900162e-01	2.024313e-03	0.0	9.951016e-01	1.002551e-03	0.0	1.000000e+00	0.000000e+00	0.0	9.950047e-01	2.158746e-04	0.0	9.898197e-01	4.041143e-04	0.0	9.844396e-01	5.441904e-04	0.0	9.788602e-01	6.419627e-04	0.0	9.730768e-01	7.164828e-04	0.0	9.670845e-01	7.356855e-04	0.0	9.608792e-01	7.322209e-04	0.0	9.544562e-01	6.646258e-04	0.0	9.478111e-01	5.804491e-04	0.0	9.409409e-01	4.012279e-04	0.0	9.338398e-01	2.159835e-04	0.0	9.265073e-01	-7.492716e-05	0.0	9.189370e-01	-3.970442e-04	0.0	9.111263e-01	-7.609419e-04	0.0	9.030731e-01	-1.187158e-03	0.0	8.947721e-01	-1.626485e-03	0.0	8.862213e-01	-2.084248e-03	0.0	8.774182e-01	-2.556099e-03	0.0	8.683598e-01	-3.010702e-03	0.0	8.590444e-01	-3.439905e-03	0.0	8.494730e-01	-3.876529e-03	0.0	8.396439e-01	-4.284210e-03	0.0	8.295590e-01	-4.702494e-03	0.0	8.192320e-01	-5.360739e-03	0.0	8.086543e-01	-6.074727e-03	0.0	7.978613e-01	-7.178573e-03	0.0	7.868418e-01	-8.525032e-03	0.0	7.756219e-01	-1.017240e-02	0.0	7.642434e-01	-1.236095e-02	0.0	7.526332e-01	-1.459405e-02	0.0	7.409248e-01	-1.745207e-02	0.0	7.290081e-01	-2.040581e-02	0.0	7.169210e-01	-2.356358e-02	0.0	7.046940e-01	-2.701095e-02	0.0	6.922737e-01	-3.051284e-02	0.0	6.797166e-01	-3.423091e-02	0.0	6.669979e-01	-3.804474e-02	0.0	6.541168e-01	-4.191431e-02	0.0	6.410917e-01	-4.586174e-02	0.0	6.279243e-01	-4.985229e-02	0.0	6.146010e-01	-5.379682e-02	0.0	6.011397e-01	-5.771076e-02	0.0	5.875726e-01	-6.165548e-02	0.0	5.738176e-01	-6.528304e-02	0.0	5.599817e-01	-6.892731e-02	0.0	5.460206e-01	-7.234205e-02	0.0	5.319313e-01	-7.545272e-02	0.0	5.178048e-01	-7.857159e-02	0.0	5.035113e-01	-8.093582e-02	0.0	4.891977e-01	-8.323613e-02	0.0	4.748329e-01	-8.504913e-02	0.0	4.604143e-01	-8.622734e-02	0.0	4.460337e-01	-8.740244e-02	0.0	4.316614e-01	-8.720531e-02	0.0	4.173556e-01	-8.696889e-02	0.0	4.031739e-01	-8.606538e-02	0.0	3.891280e-01	-8.453629e-02	0.0	3.751955e-01	-8.299101e-02	0.0	3.614914e-01	-8.069481e-02	0.0	3.479217e-01	-7.842115e-02	0.0	3.345265e-01	-7.601686e-02	0.0	3.213136e-01	-7.350372e-02	0.0	3.082691e-01	-7.102300e-02	0.0	2.953780e-01	-6.871407e-02	0.0	2.826756e-01	-6.643895e-02	0.0	2.701408e-01	-6.438470e-02	0.0	2.577786e-01	-6.257200e-02	0.0	2.456312e-01	-6.079078e-02	0.0	2.336346e-01	-5.963397e-02	0.0	2.218626e-01	-5.853790e-02	0.0	2.103057e-01	-5.781529e-02	0.0	1.989614e-01	-5.760018e-02	0.0	1.878620e-01	-5.738972e-02	0.0	1.770124e-01	-5.761676e-02	0.0	1.664141e-01	-5.788765e-02	0.0	1.560678e-01	-5.803680e-02	0.0	1.459743e-01	-5.799977e-02	0.0	1.361368e-01	-5.796367e-02	0.0	1.266203e-01	-5.691229e-02	0.0	1.173663e-01	-5.576186e-02	0.0	1.084953e-01	-5.403353e-02	0.0	1.000622e-01	-5.146468e-02	0.0	9.187074e-02	-4.896942e-02	0.0	8.421858e-02	-4.573771e-02	0.0	7.683353e-02	-4.249779e-02	0.0	6.972666e-02	-3.924155e-02	0.0	6.293596e-02	-3.588014e-02	0.0	5.635916e-02	-3.262460e-02	0.0	4.989367e-02	-2.968291e-02	0.0	4.363173e-02	-2.685097e-02	0.0	3.748690e-02	-2.432244e-02	0.0	3.152516e-02	-2.193142e-02	0.0	2.580259e-02	-1.953156e-02	0.0	2.035421e-02	-1.705326e-02	0.0	1.529236e-02	-1.425484e-02	0.0	1.070217e-02	-1.110398e-02	0.0	6.470715e-03	-7.786701e-03	0.0	2.808624e-03	-4.111276e-03	0.0	
CELLS 198	594
2	101	102	2	102	103	2	103	104	2	104	105	2	105	106	2	106	107	2	107	108	2	108	109	2	109	110	2	110	111	2	111	112	2	112	113	2	113	114	2	114	115	2	115	116	2	116	117	2	117	118	2	118	119	2	119	120	2	120	121	2	121	122	2	122	123	2	123	124	2	124	125	2	125	126	2	126	127	2	127	128	2	128	129	2	129	130	2	130	131	2	131	132	2	132	133	2	133	134	2	134	135	2	135	136	2	136	137	2	137	138	2	138	139	2	139	140	2	140	141	2	141	142	2	142	143	2	143	144	2	144	145	2	145	146	2	146	147	2	147	148	2	148	149	2	149	150	2	150	151	2	151	152	2	152	153	2	153	154	2	154	155	2	155	156	2	156	157	2	157	158	2	158	159	2	159	160	2	160	161	2	161	162	2	162	163	2	163	164	2	164	165	2	165	166	2	166	167	2	167	168	2	168	169	2	169	170	2	170	171	2	171	172	2	172	173	2	173	174	2	174	175	2	175	176	2	0	1	2	1	2	2	2	3	2	3	4	2	4	5	2	5	6	2	6	7	2	7	8	2	8	9	2	9	10	2	10	11	2	11	12	2	12	13	2	13	14	2	14	15	2	15	16	2	16	17	2	17	18	2	18	19	2	19	20	2	20	21	2	21	22	2	22	23	2	23	24	2	24	25	2	25	26	2	26	27	2	27	28	2	28	29	2	29	30	2	30	31	2	31	32	2	32	33	2	33	34	2	34	35	2	35	36	2	176	177	2	177	178	2	178	179	2	179	180	2	180	181	2	181	182	2	182	183	2	183	184	2	184	185	2	185	186	2	186	187	2	187	188	2	188	189	2	189	190	2	190	191	2	191	192	2	192	193	2	193	194	2	194	195	2	195	196	2	196	197	2	197	0	2	36	37	2	37	38	2	38	39	2	39	40	2	40	41	2	41	42	2	42	43	2	43	44	2	44	45	2	45	46	2	46	47	2	47	48	2	48	49	2	49	50	2	50	51	2	51	52	2	52	53	2	53	54	2	54	55	2	55	56	2	56	57	2	57	58	2	58	59	2	59	60	2	60	61	2	61	62	2	62	63	2	63	64	2	64	65	2	65	66	2	66	67	2	67	68	2	68	69	2	69	70	2	70	71	2	71	72	2	72	73	2	73	74	2	74	75	2	75	76	2	76	77	2	77	78	2	78	79	2	79	80	2	80	81	2	81	82	2	82	83	2	83	84	2	84	85	2	85	86	2	86	87	2	87	88	2	88	89	2	89	90	2	90	91	2	91	92	2	92	93	2	93	94	2	94	95	2	95	96	2	96	97	2	97	98	2	98	99	2	99	100	2	100	101	
CELL_TYPES 198
3	3	3	3	3	3	3	3	3	3	3	3	3	3	3	3	3	3	3	3	3	3	3	3	3	3	3	3	3	3	3	3	3	3	3	3	3	3	3	3	3	3	3	3	3	3	3	3	3	3	3	3	3	3	3	3	3	3	3	3	3	3	3	3	3	3	3	3	3	3	3	3	3	3	3	3	3	3	3	3	3	3	3	3	3	3	3	3	3	3	3	3	3	3	3	3	3	3	3	3	3	3	3	3	3	3	3	3	3	3	3	3	3	3	3	3	3	3	3	3	3	3	3	3	3	3	3	3	3	3	3	3	3	3	3	3	3	3	3	3	3	3	3	3	3	3	3	3	3	3	3	3	3	3	3	3	3	3	3	3	3	3	3	3	3	3	3	3	3	3	3	3	3	3	3	3	3	3	3	3	3	3	3	3	3	3	3	3	3	3	3	3	3	3	3	3	3	3	
POINT_DATA 198

SCALARS Density double 1
LOOKUP_TABLE default
1.536872e+00	1.188078e+00	1.147144e+00	1.075108e+00	1.056976e+00	1.047717e+00	1.069224e+00	1.072396e+00	1.070975e+00	1.052789e+00	1.042292e+00	1.039040e+00	1.077584e+00	1.147815e+00	1.231421e+00	1.303639e+00	1.344039e+00	1.359060e+00	1.360516e+00	1.349901e+00	1.309744e+00	1.278027e+00	1.237148e+00	1.170678e+00	1.114406e+00	1.065547e+00	9.660427e-01	8.958477e-01	8.316007e-01	7.416972e-01	7.033678e-01	6.484146e-01	5.991792e-01	5.825331e-01	5.590873e-01	5.494517e-01	5.420632e-01	5.335298e-01	5.343962e-01	5.368404e-01	5.356413e-01	5.447228e-01	5.577994e-01	6.362377e-01	9.418334e-01	1.161892e+00	1.179200e+00	1.187366e+00	1.195816e+00	1.207602e+00	1.207716e+00	1.217876e+00	1.219301e+00	1.212234e+00	1.214454e+00	1.200770e+00	1.190928e+00	1.177736e+00	1.155587e+00	1.137159e+00	1.118060e+00	1.088923e+00	1.067789e+00	1.052157e+00	1.026810e+00	1.017460e+00	9.951004e-01	9.848763e-01	9.929846e-01	9.893084e-01	1.010037e+00	1.023553e+00	1.052633e+00	1.092487e+00	1.119460e+00	1.153120e+00	1.176616e+00	1.196433e+00	1.215779e+00	1.224411e+00	1.231390e+00	1.238400e+00	1.238242e+00	1.242846e+00	1.244196e+00	1.244730e+00	1.247302e+00	1.248926e+00	1.251158e+00	1.254839e+00	1.258127e+00	1.262173e+00	1.266703e+00	1.271127e+00	1.276408e+00	1.281457e+00	1.288835e+00	1.297881e+00	1.305879e+00	1.304078e+00	1.392787e+00	1.362723e+00	1.365179e+00	1.364663e+00	1.366109e+00	1.367099e+00	1.367453e+00	1.368890e+00	1.368902e+00	1.369101e+00	1.369788e+00	1.367686e+00	1.367991e+00	1.366435e+00	1.364951e+00	1.364618e+00	1.363918e+00	1.363770e+00	1.365958e+00	1.368524e+00	1.372170e+00	1.381010e+00	1.385715e+00	1.392426e+00	1.398060e+00	1.398461e+00	1.403296e+00	1.397989e+00	1.396208e+00	1.392104e+00	1.379543e+00	1.374904e+00	1.363208e+00	1.352687e+00	1.342026e+00	1.328087e+00	1.314608e+00	1.300222e+00	1.283440e+00	1.265525e+00	1.251539e+00	1.227817e+00	1.213609e+00	1.204912e+00	1.182581e+00	9.236667e-01	6.924911e-01	6.675566e-01	6.921468e-01	7.073402e-01	7.511719e-01	7.758428e-01	8.350597e-01	9.035369e-01	9.391728e-01	1.004081e+00	1.043460e+00	1.093727e+00	1.153391e+00	1.185603e+00	1.221843e+00	1.256503e+00	1.279255e+00	1.301256e+00	1.321793e+00	1.331214e+00	1.351375e+00	1.360727e+00	1.360883e+00	1.372662e+00	1.360743e+00	1.352057e+00	1.339747e+00	1.303389e+00	1.270508e+00	1.236856e+00	1.156609e+00	1.112593e+00	1.087496e+00	1.061280e+00	1.119742e+00	1.167515e+00	1.222875e+00	1.300256e+00	1.338776e+00	1.382404e+00	1.428283e+00	1.453046e+00	1.473892e+00	1.490690e+00	1.495461e+00	1.503118e+00	1.510661e+00	1.525557e+00	1.559020e+00	1.593451e+00	1.612669e+00	1.702116e+00	
VECTORS Momentum double
1.552079e+01	2.131800e+02	0.0	1.775272e+02	1.912494e+02	0.0	2.188368e+02	1.816281e+02	0.0	2.534103e+02	1.534544e+02	0.0	2.714021e+02	1.356143e+02	0.0	2.806849e+02	1.156217e+02	0.0	2.881366e+02	1.077329e+02	0.0	2.925149e+02	9.935965e+01	0.0	2.974513e+02	9.411301e+01	0.0	3.010601e+02	8.567331e+01	0.0	3.068646e+02	7.694226e+01	0.0	3.094821e+02	6.200468e+01	0.0	3.093468e+02	4.807789e+01	0.0	3.028115e+02	3.127945e+01	0.0	2.875370e+02	2.118745e+01	0.0	2.722899e+02	2.454001e+01	0.0	2.607527e+02	3.649444e+01	0.0	2.537074e+02	5.017067e+01	0.0	2.490523e+02	6.621354e+01	0.0	2.525760e+02	8.425722e+01	0.0	2.605525e+02	9.364597e+01	0.0	2.685880e+02	1.024117e+02	0.0	2.795662e+02	1.104725e+02	0.0	2.913243e+02	1.078923e+02	0.0	2.986703e+02	1.021794e+02	0.0	3.076834e+02	1.004734e+02	0.0	3.095804e+02	8.070244e+01	0.0	3.093327e+02	6.562183e+01	0.0	3.091049e+02	5.185474e+01	0.0	2.943179e+02	2.770292e+01	0.0	2.891513e+02	1.763665e+01	0.0	2.785239e+02	2.879434e+00	0.0	2.649240e+02	-1.011561e+01	0.0	2.612773e+02	-1.513231e+01	0.0	2.541960e+02	-2.171766e+01	0.0	2.515586e+02	-2.537742e+01	0.0	2.494296e+02	-2.802442e+01	0.0	2.462637e+02	-3.091870e+01	0.0	2.465595e+02	-3.164227e+01	0.0	2.479549e+02	-3.266187e+01	0.0	2.460886e+02	-3.336805e+01	0.0	2.510010e+02	-3.260937e+01	0.0	2.517201e+02	-3.289276e+01	0.0	2.520977e+02	-3.212916e+01	0.0	2.468468e+02	-2.841891e+01	0.0	2.361322e+02	-2.671105e+01	0.0	2.324755e+02	-2.373485e+01	0.0	2.312887e+02	-2.088767e+01	0.0	2.293980e+02	-1.843999e+01	0.0	2.285557e+02	-1.375075e+01	0.0	2.259746e+02	-1.177227e+01	0.0	2.273476e+02	-5.625471e+00	0.0	2.307075e+02	4.463970e-01	0.0	2.318644e+02	3.943009e+00	0.0	2.358964e+02	1.119405e+01	0.0	2.399119e+02	1.469909e+01	0.0	2.441456e+02	1.872757e+01	0.0	2.502249e+02	2.309652e+01	0.0	2.559379e+02	2.354538e+01	0.0	2.610495e+02	2.365855e+01	0.0	2.675642e+02	2.428202e+01	0.0	2.723473e+02	2.000377e+01	0.0	2.755463e+02	1.537905e+01	0.0	2.796234e+02	1.222142e+01	0.0	2.810011e+02	4.882523e+00	0.0	2.845956e+02	1.370328e+00	0.0	2.860236e+02	-7.043392e+00	0.0	2.846916e+02	-1.597237e+01	0.0	2.859580e+02	-2.131286e+01	0.0	2.827929e+02	-3.166624e+01	0.0	2.823469e+02	-3.801040e+01	0.0	2.780477e+02	-4.856647e+01	0.0	2.710918e+02	-5.715827e+01	0.0	2.650769e+02	-6.129783e+01	0.0	2.564884e+02	-6.614997e+01	0.0	2.490600e+02	-6.597855e+01	0.0	2.422639e+02	-6.522092e+01	0.0	2.349158e+02	-6.283407e+01	0.0	2.307239e+02	-5.769824e+01	0.0	2.278840e+02	-5.405068e+01	0.0	2.251824e+02	-5.024838e+01	0.0	2.244612e+02	-4.597693e+01	0.0	2.232841e+02	-4.440302e+01	0.0	2.225428e+02	-4.202681e+01	0.0	2.223263e+02	-4.049027e+01	0.0	2.216324e+02	-4.000346e+01	0.0	2.208365e+02	-3.936032e+01	0.0	2.200082e+02	-3.930798e+01	0.0	2.185790e+02	-3.960481e+01	0.0	2.170168e+02	-3.967399e+01	0.0	2.152592e+02	-3.989351e+01	0.0	2.131985e+02	-4.003996e+01	0.0	2.110118e+02	-3.998244e+01	0.0	2.085795e+02	-3.995717e+01	0.0	2.059264e+02	-3.979105e+01	0.0	2.026223e+02	-3.961117e+01	0.0	1.991962e+02	-3.914182e+01	0.0	1.936754e+02	-3.853788e+01	0.0	1.827544e+02	-3.733421e+01	0.0	1.773034e+02	-1.243215e+01	0.0	2.442653e+02	-1.236810e+01	0.0	2.308898e+02	-7.148159e+00	0.0	2.310171e+02	-5.255708e+00	0.0	2.296900e+02	-3.443486e+00	0.0	2.295794e+02	-1.836954e+00	0.0	2.291118e+02	-2.889623e-01	0.0	2.285230e+02	1.301091e+00	0.0	2.280862e+02	2.635262e+00	0.0	2.275476e+02	4.445047e+00	0.0	2.273495e+02	5.925067e+00	0.0	2.273541e+02	7.484234e+00	0.0	2.275693e+02	9.386091e+00	0.0	2.282120e+02	1.014683e+01	0.0	2.284377e+02	1.138901e+01	0.0	2.291298e+02	1.213952e+01	0.0	2.295937e+02	1.221877e+01	0.0	2.296122e+02	1.230401e+01	0.0	2.295859e+02	1.193044e+01	0.0	2.289520e+02	1.101805e+01	0.0	2.272600e+02	1.042217e+01	0.0	2.252870e+02	9.774777e+00	0.0	2.218347e+02	9.143695e+00	0.0	2.174298e+02	1.151636e+01	0.0	2.140001e+02	1.405281e+01	0.0	2.101517e+02	1.784776e+01	0.0	2.078605e+02	2.332369e+01	0.0	2.066559e+02	2.768994e+01	0.0	2.058876e+02	3.501561e+01	0.0	2.078939e+02	3.996930e+01	0.0	2.089978e+02	4.565993e+01	0.0	2.118829e+02	5.226649e+01	0.0	2.167442e+02	5.509158e+01	0.0	2.197886e+02	5.972275e+01	0.0	2.248350e+02	6.340264e+01	0.0	2.291626e+02	6.624224e+01	0.0	2.339093e+02	6.969217e+01	0.0	2.392239e+02	7.177129e+01	0.0	2.440174e+02	7.362433e+01	0.0	2.492672e+02	7.554374e+01	0.0	2.543293e+02	7.620192e+01	0.0	2.598640e+02	7.616675e+01	0.0	2.635853e+02	7.673088e+01	0.0	2.689449e+02	7.449207e+01	0.0	2.725992e+02	7.172787e+01	0.0	2.750670e+02	6.857210e+01	0.0	2.809219e+02	6.641606e+01	0.0	2.773081e+02	6.086215e+01	0.0	2.802221e+02	5.380344e+01	0.0	2.905517e+02	4.758837e+01	0.0	2.907501e+02	4.197819e+01	0.0	3.033847e+02	3.180686e+01	0.0	3.065898e+02	2.507520e+01	0.0	3.181483e+02	1.003794e+01	0.0	3.261954e+02	-5.435518e+00	0.0	3.275636e+02	-1.363289e+01	0.0	3.333679e+02	-2.930192e+01	0.0	3.303980e+02	-3.603431e+01	0.0	3.294167e+02	-4.574523e+01	0.0	3.260144e+02	-5.494315e+01	0.0	3.197775e+02	-5.548845e+01	0.0	3.157220e+02	-5.856857e+01	0.0	3.105608e+02	-5.920038e+01	0.0	3.051724e+02	-5.632702e+01	0.0	3.013202e+02	-5.403571e+01	0.0	2.971762e+02	-5.093462e+01	0.0	2.933502e+02	-4.549025e+01	0.0	2.902230e+02	-4.268129e+01	0.0	2.869257e+02	-3.490113e+01	0.0	2.865294e+02	-2.714530e+01	0.0	2.865465e+02	-2.254554e+01	0.0	2.857587e+02	-1.160556e+01	0.0	2.898434e+02	-5.568889e+00	0.0	2.938782e+02	-5.256591e-03	0.0	2.995574e+02	7.030367e+00	0.0	3.096785e+02	5.963915e+00	0.0	3.152646e+02	1.315945e+00	0.0	3.195634e+02	-9.421557e-01	0.0	3.292804e+02	-1.917415e+01	0.0	3.286370e+02	-3.863514e+01	0.0	3.243624e+02	-5.122624e+01	0.0	3.246328e+02	-8.082191e+01	0.0	3.124659e+02	-9.553188e+01	0.0	3.010989e+02	-1.099057e+02	0.0	2.853667e+02	-1.235895e+02	0.0	2.701318e+02	-1.209001e+02	0.0	2.566423e+02	-1.223591e+02	0.0	2.415517e+02	-1.198817e+02	0.0	2.297515e+02	-1.091011e+02	0.0	2.221909e+02	-1.008019e+02	0.0	2.153729e+02	-9.313840e+01	0.0	2.110739e+02	-8.571206e+01	0.0	2.065968e+02	-8.478644e+01	0.0	1.970771e+02	-8.598379e+01	0.0	1.820383e+02	-9.123119e+01	0.0	1.530723e+02	-9.415538e+01	0.0	1.125760e+02	-8.194727e+01	0.0	6.492226e+01	-5.377006e+01	0.0	-2.171424e+01	2.193484e+01	0.0	
SCALARS Energy double 1
LOOKUP_TABLE default
3.375347e+05	2.658356e+05	2.588430e+05	2.448112e+05	2.416583e+05	2.397742e+05	2.445165e+05	2.452747e+05	2.452364e+05	2.416040e+05	2.397505e+05	2.390247e+05	2.466792e+05	2.604508e+05	2.766911e+05	2.908996e+05	2.988383e+05	3.017579e+05	3.020166e+05	3.002437e+05	2.923938e+05	2.863907e+05	2.787237e+05	2.656519e+05	2.544450e+05	2.451215e+05	2.246330e+05	2.102201e+05	1.972173e+05	1.776775e+05	1.695776e+05	1.577091e+05	1.466967e+05	1.431261e+05	1.378754e+05	1.357754e+05	1.341559e+05	1.321963e+05	1.324086e+05	1.330645e+05	1.326082e+05	1.349307e+05	1.374700e+05	1.524770e+05	2.136120e+05	2.589126e+05	2.623384e+05	2.639823e+05	2.656534e+05	2.680840e+05	2.679635e+05	2.701767e+05	2.706554e+05	2.692239e+05	2.699285e+05	2.672739e+05	2.654584e+05	2.630647e+05	2.587683e+05	2.552372e+05	2.516865e+05	2.459285e+05	2.417516e+05	2.388086e+05	2.336644e+05	2.320200e+05	2.275505e+05	2.253748e+05	2.271695e+05	2.262355e+05	2.305176e+05	2.330884e+05	2.386924e+05	2.465976e+05	2.517211e+05	2.582911e+05	2.628049e+05	2.665206e+05	2.703016e+05	2.719272e+05	2.732165e+05	2.746168e+05	2.745060e+05	2.754207e+05	2.756815e+05	2.757550e+05	2.762545e+05	2.765570e+05	2.769620e+05	2.776667e+05	2.782811e+05	2.790425e+05	2.799006e+05	2.807271e+05	2.817267e+05	2.826503e+05	2.840662e+05	2.857524e+05	2.870007e+05	2.862648e+05	3.081770e+05	3.011157e+05	3.016420e+05	3.014665e+05	3.017681e+05	3.019560e+05	3.020034e+05	3.022890e+05	3.022672e+05	3.023018e+05	3.024506e+05	3.020167e+05	3.021136e+05	3.017961e+05	3.015151e+05	3.014667e+05	3.013190e+05	3.012852e+05	3.017182e+05	3.021824e+05	3.028644e+05	3.045868e+05	3.053953e+05	3.066820e+05	3.077304e+05	3.077413e+05	3.087461e+05	3.076266e+05	3.073690e+05	3.065897e+05	3.041014e+05	3.033600e+05	3.010630e+05	2.991085e+05	2.970908e+05	2.944184e+05	2.918662e+05	2.891055e+05	2.858797e+05	2.824006e+05	2.797806e+05	2.750346e+05	2.723524e+05	2.707192e+05	2.661640e+05	2.131953e+05	1.668026e+05	1.621909e+05	1.679913e+05	1.708237e+05	1.805970e+05	1.856739e+05	1.984252e+05	2.127701e+05	2.200195e+05	2.336802e+05	2.414089e+05	2.516341e+05	2.636641e+05	2.698037e+05	2.770260e+05	2.838508e+05	2.881753e+05	2.924803e+05	2.964708e+05	2.981455e+05	3.021576e+05	3.038600e+05	3.038183e+05	3.062755e+05	3.036793e+05	3.020885e+05	2.997482e+05	2.924953e+05	2.863112e+05	2.797061e+05	2.634371e+05	2.552475e+05	2.502193e+05	2.446661e+05	2.571073e+05	2.662521e+05	2.771964e+05	2.926005e+05	2.996750e+05	3.081436e+05	3.170126e+05	3.214694e+05	3.253999e+05	3.285494e+05	3.292653e+05	3.307078e+05	3.319758e+05	3.347166e+05	3.410504e+05	3.472961e+05	3.503549e+05	3.692029e+05	
SCALARS Pressure double 1
LOOKUP_TABLE default
1.290685e+05	9.487166e+04	8.943640e+04	8.159775e+04	7.924566e+04	7.831861e+04	8.010610e+04	8.031101e+04	7.991777e+04	7.802872e+04	7.669520e+04	7.643378e+04	8.048154e+04	8.803255e+04	9.717554e+04	1.048929e+05	1.092196e+05	1.108604e+05	1.110440e+05	1.095939e+05	1.052519e+05	1.016258e+05	9.688144e+04	8.977278e+04	8.389502e+04	7.838470e+04	6.866307e+04	6.176440e+04	5.526145e+04	4.750600e+04	4.396885e+04	3.915330e+04	3.521757e+04	3.373426e+04	3.186674e+04	3.104125e+04	3.041765e+04	2.978637e+04	2.983721e+04	2.992336e+04	3.001556e+04	3.045027e+04	3.188113e+04	4.068846e+04	7.233401e+04	9.384437e+04	9.567346e+04	9.650884e+04	9.740324e+04	9.855081e+04	9.870607e+04	9.957744e+04	9.953155e+04	9.881724e+04	9.878661e+04	9.728677e+04	9.611426e+04	9.450261e+04	9.207442e+04	9.001097e+04	8.776290e+04	8.467469e+04	8.243523e+04	8.063237e+04	7.808114e+04	7.688668e+04	7.456775e+04	7.363933e+04	7.430636e+04	7.412425e+04	7.613544e+04	7.766817e+04	8.089301e+04	8.508772e+04	8.815343e+04	9.180263e+04	9.442253e+04	9.672324e+04	9.881588e+04	9.981107e+04	1.006407e+05	1.013686e+05	1.014313e+05	1.019144e+05	1.020635e+05	1.021522e+05	1.024335e+05	1.026241e+05	1.028969e+05	1.033095e+05	1.036935e+05	1.041605e+05	1.046776e+05	1.051945e+05	1.057981e+05	1.064075e+05	1.072314e+05	1.082919e+05	1.094716e+05	1.096609e+05	1.146811e+05	1.126147e+05	1.128342e+05	1.128529e+05	1.129904e+05	1.131030e+05	1.131631e+05	1.133138e+05	1.133391e+05	1.133650e+05	1.134249e+05	1.132208e+05	1.132162e+05	1.130615e+05	1.128918e+05	1.128391e+05	1.127745e+05	1.127632e+05	1.129945e+05	1.133092e+05	1.137342e+05	1.146958e+05	1.153157e+05	1.160666e+05	1.167287e+05	1.168396e+05	1.173025e+05	1.168109e+05	1.165277e+05	1.160609e+05	1.147359e+05	1.140688e+05	1.128147e+05	1.115749e+05	1.103561e+05	1.087965e+05	1.072563e+05	1.056493e+05	1.037801e+05	1.018202e+05	1.001938e+05	9.773761e+04	9.610643e+04	9.509913e+04	9.287432e+04	6.723521e+04	4.344164e+04	4.048315e+04	4.214841e+04	4.392884e+04	4.746312e+04	4.987645e+04	5.510375e+04	6.154886e+04	6.511877e+04	7.116458e+04	7.539142e+04	8.042774e+04	8.651211e+04	9.015220e+04	9.393252e+04	9.763066e+04	1.002140e+05	1.025885e+05	1.048331e+05	1.060186e+05	1.081277e+05	1.092646e+05	1.093535e+05	1.104727e+05	1.094499e+05	1.084039e+05	1.070066e+05	1.032211e+05	9.942244e+04	9.581050e+04	8.771605e+04	8.254230e+04	7.995066e+04	7.754474e+04	8.285283e+04	8.821222e+04	9.407557e+04	1.021649e+05	1.067852e+05	1.115623e+05	1.166223e+05	1.196839e+05	1.220821e+05	1.240325e+05	1.247653e+05	1.256475e+05	1.266695e+05	1.284511e+05	1.322770e+05	1.364849e+05	1.392607e+05	1.475692e+05	
SCALARS Temperature double 1
LOOKUP_TABLE default
2.925586e+02	2.781775e+02	2.715981e+02	2.643969e+02	2.611805e+02	2.604062e+02	2.609920e+02	2.608856e+02	2.599527e+02	2.581925e+02	2.563358e+02	2.562615e+02	2.601809e+02	2.671786e+02	2.749037e+02	2.802972e+02	2.830864e+02	2.841635e+02	2.843293e+02	2.828231e+02	2.799457e+02	2.770091e+02	2.728032e+02	2.671391e+02	2.622546e+02	2.562649e+02	2.476038e+02	2.401787e+02	2.314930e+02	2.231270e+02	2.177675e+02	2.103517e+02	2.047543e+02	2.017348e+02	1.985585e+02	1.968067e+02	1.954817e+02	1.944864e+02	1.945025e+02	1.941760e+02	1.952103e+02	1.947358e+02	1.991068e+02	2.227831e+02	2.675462e+02	2.813668e+02	2.826405e+02	2.831475e+02	2.837523e+02	2.842934e+02	2.847143e+02	2.848316e+02	2.843675e+02	2.839728e+02	2.833659e+02	2.822437e+02	2.811465e+02	2.795286e+02	2.775663e+02	2.757430e+02	2.734490e+02	2.708862e+02	2.689415e+02	2.669680e+02	2.649026e+02	2.632474e+02	2.610444e+02	2.604705e+02	2.606837e+02	2.610111e+02	2.625910e+02	2.643401e+02	2.677098e+02	2.713195e+02	2.743222e+02	2.773391e+02	2.795575e+02	2.816261e+02	2.831408e+02	2.839761e+02	2.847137e+02	2.851496e+02	2.853624e+02	2.856595e+02	2.857671e+02	2.858927e+02	2.860888e+02	2.862484e+02	2.864971e+02	2.868023e+02	2.871160e+02	2.874846e+02	2.878787e+02	2.882931e+02	2.887477e+02	2.892668e+02	2.898378e+02	2.906640e+02	2.920310e+02	2.929400e+02	2.868385e+02	2.878844e+02	2.879263e+02	2.880831e+02	2.881288e+02	2.882071e+02	2.882856e+02	2.883664e+02	2.884284e+02	2.884522e+02	2.884599e+02	2.883831e+02	2.883074e+02	2.882412e+02	2.881215e+02	2.880573e+02	2.880400e+02	2.880425e+02	2.881709e+02	2.884319e+02	2.887444e+02	2.893218e+02	2.898978e+02	2.903791e+02	2.908588e+02	2.910517e+02	2.911981e+02	2.910783e+02	2.907432e+02	2.904323e+02	2.897306e+02	2.890180e+02	2.882928e+02	2.873424e+02	2.864611e+02	2.853768e+02	2.842215e+02	2.830606e+02	2.816884e+02	2.802808e+02	2.788860e+02	2.773055e+02	2.758696e+02	2.749485e+02	2.735868e+02	2.535781e+02	2.185357e+02	2.112596e+02	2.121355e+02	2.163474e+02	2.201138e+02	2.239505e+02	2.298762e+02	2.373037e+02	2.415411e+02	2.469025e+02	2.516962e+02	2.561694e+02	2.612947e+02	2.648911e+02	2.678126e+02	2.706781e+02	2.728988e+02	2.746417e+02	2.762901e+02	2.774372e+02	2.787349e+02	2.797299e+02	2.799254e+02	2.803635e+02	2.802012e+02	2.793060e+02	2.782392e+02	2.758829e+02	2.726071e+02	2.698511e+02	2.641939e+02	2.584464e+02	2.561090e+02	2.545380e+02	2.577625e+02	2.632065e+02	2.679940e+02	2.737177e+02	2.778647e+02	2.811336e+02	2.844447e+02	2.869369e+02	2.885470e+02	2.898536e+02	2.906357e+02	2.911997e+02	2.921026e+02	2.933188e+02	2.955718e+02	2.983844e+02	3.008248e+02	3.020209e+02	
SCALARS Mach double 1
LOOKUP_TABLE default
4.056033e-01	6.568921e-01	7.503882e-01	8.453405e-01	8.859891e-01	8.956428e-01	8.883438e-01	8.896718e-01	9.012765e-01	9.229972e-01	9.456795e-01	9.465828e-01	8.984433e-01	8.093856e-01	7.044072e-01	6.248453e-01	5.807927e-01	5.631077e-01	5.603477e-01	5.850543e-01	6.302375e-01	6.741038e-01	7.338317e-01	8.099019e-01	8.725153e-01	9.465423e-01	1.049848e+00	1.136147e+00	1.235663e+00	1.331008e+00	1.392207e+00	1.477444e+00	1.542466e+00	1.577862e+00	1.615383e+00	1.636212e+00	1.652038e+00	1.663966e+00	1.663774e+00	1.667694e+00	1.655287e+00	1.660973e+00	1.608883e+00	1.334929e+00	8.045712e-01	6.082265e-01	5.879976e-01	5.798002e-01	5.699088e-01	5.609454e-01	5.538981e-01	5.519215e-01	5.597094e-01	5.662697e-01	5.762438e-01	5.943533e-01	6.116771e-01	6.365944e-01	6.659321e-01	6.924313e-01	7.248648e-01	7.600674e-01	7.861525e-01	8.121363e-01	8.388636e-01	8.599733e-01	8.876885e-01	8.948438e-01	8.921891e-01	8.881052e-01	8.682748e-01	8.460666e-01	8.024229e-01	7.541856e-01	7.126288e-01	6.692727e-01	6.361555e-01	6.041482e-01	5.799093e-01	5.662151e-01	5.539079e-01	5.465375e-01	5.429092e-01	5.378145e-01	5.359603e-01	5.337885e-01	5.303844e-01	5.276003e-01	5.232411e-01	5.178502e-01	5.122627e-01	5.056338e-01	4.984686e-01	4.908432e-01	4.823635e-01	4.725297e-01	4.615132e-01	4.451709e-01	4.169460e-01	3.972282e-01	5.172084e-01	4.983647e-01	4.975966e-01	4.947181e-01	4.938777e-01	4.924325e-01	4.909805e-01	4.894838e-01	4.883319e-01	4.878880e-01	4.877453e-01	4.891729e-01	4.905772e-01	4.918027e-01	4.940110e-01	4.951935e-01	4.955118e-01	4.954645e-01	4.931006e-01	4.882660e-01	4.824265e-01	4.714785e-01	4.603437e-01	4.508631e-01	4.412429e-01	4.373252e-01	4.343296e-01	4.367816e-01	4.435778e-01	4.498041e-01	4.635977e-01	4.772635e-01	4.908472e-01	5.081991e-01	5.238741e-01	5.426643e-01	5.621424e-01	5.812111e-01	6.031665e-01	6.250974e-01	6.463032e-01	6.697654e-01	6.906126e-01	7.037708e-01	7.229421e-01	9.789848e-01	1.383420e+00	1.466960e+00	1.456861e+00	1.408467e+00	1.365387e+00	1.321621e+00	1.254100e+00	1.169206e+00	1.120422e+00	1.058071e+00	1.001480e+00	9.477022e-01	8.845605e-01	8.390114e-01	8.010729e-01	7.628839e-01	7.325088e-01	7.081198e-01	6.845518e-01	6.678323e-01	6.485712e-01	6.335333e-01	6.305490e-01	6.238237e-01	6.263218e-01	6.399698e-01	6.559740e-01	6.904216e-01	7.365405e-01	7.740139e-01	8.479340e-01	9.198782e-01	9.484364e-01	9.674416e-01	9.282703e-01	8.604927e-01	7.986855e-01	7.211125e-01	6.615290e-01	6.118780e-01	5.584207e-01	5.154577e-01	4.861212e-01	4.612046e-01	4.457382e-01	4.342967e-01	4.154232e-01	3.887524e-01	3.344604e-01	2.523473e-01	1.503368e-01	5.204862e-02	
SCALARS Pressure_Coefficient double 1
LOOKUP_TABLE default