# vtk DataFile Version 3.0
vtk output
ASCII
DATASET UNSTRUCTURED_GRID
POINTS 3184 double
5.000000e+01	0.000000e+00	0.0	4.829629e+01	1.294095e+01	0.0	4.330127e+01	2.500000e+01	0.0	3.535534e+01	3.535534e+01	0.0	2.500000e+01	4.330127e+01	0.0	1.294095e+01	4.829629e+01	0.0	3.061617e-15	5.000000e+01	0.0	-1.294095e+01	4.829629e+01	0.0	-2.500000e+01	4.330127e+01	0.0	-3.535534e+01	3.535534e+01	0.0	-4.330127e+01	2.500000e+01	0.0	-4.829629e+01	1.294095e+01	0.0	-5.000000e+01	6.123234e-15	0.0	-4.829629e+01	-1.294095e+01	0.0	-4.330127e+01	-2.500000e+01	0.0	-3.535534e+01	-3.535534e+01	0.0	-2.500000e+01	-4.330127e+01	0.0	-1.294095e+01	-4.829629e+01	0.0	3.522407e-14	-5.000000e+01	0.0	1.294095e+01	-4.829629e+01	0.0	2.500000e+01	-4.330127e+01	0.0	3.535534e+01	-3.535534e+01	0.0	4.330127e+01	-2.500000e+01	0.0	4.829629e+01	-1.294095e+01	0.0	0.000000e+00	0.000000e+00	0.0	1.488382e-03	4.706598e-03	0.0	4.729298e-03	8.709208e-03	0.0	8.960773e-03	1.200800e-02	0.0	1.377211e-02	1.481082e-02	0.0	1.898148e-02	1.729171e-02	0.0	2.450839e-02	1.956573e-02	0.0	3.031646e-02	2.170182e-02	0.0	3.640678e-02	2.368159e-02	0.0	4.275644e-02	2.556158e-02	0.0	4.934929e-02	2.740459e-02	0.0	5.620341e-02	2.915135e-02	0.0	6.330642e-02	3.085116e-02	0.0	7.065477e-02	3.253381e-02	0.0	7.826755e-02	3.411931e-02	0.0	8.612502e-02	3.570894e-02	0.0	9.424359e-02	3.723200e-02	0.0	1.026161e-01	3.873041e-02	0.0	1.112448e-01	4.020140e-02	0.0	1.201352e-01	4.161485e-02	0.0	1.292780e-01	4.303285e-02	0.0	1.386872e-01	4.436293e-02	0.0	1.483482e-01	4.570003e-02	0.0	1.582709e-01	4.696841e-02	0.0	1.684468e-01	4.821680e-02	0.0	1.788773e-01	4.942085e-02	0.0	1.895599e-01	5.057634e-02	0.0	2.004884e-01	5.171229e-02	0.0	2.116645e-01	5.277078e-02	0.0	2.230769e-01	5.382437e-02	0.0	2.347277e-01	5.478919e-02	0.0	2.466050e-01	5.573642e-02	0.0	2.587062e-01	5.661823e-02	0.0	2.710224e-01	5.745154e-02	0.0	2.835455e-01	5.824452e-02	0.0	2.962690e-01	5.895808e-02	0.0	3.091804e-01	5.965252e-02	0.0	3.222741e-01	6.024210e-02	0.0	3.355357e-01	6.080298e-02	0.0	3.489565e-01	6.128503e-02	0.0	3.625238e-01	6.170313e-02	0.0	3.762252e-01	6.207156e-02	0.0	3.900488e-01	6.233973e-02	0.0	4.039801e-01	6.257569e-02	0.0	4.180065e-01	6.270156e-02	0.0	4.321130e-01	6.277788e-02	0.0	4.462857e-01	6.277497e-02	0.0	4.605094e-01	6.267911e-02	0.0	4.747698e-01	6.253694e-02	0.0	4.890502e-01	6.225260e-02	0.0	5.033369e-01	6.192359e-02	0.0	5.176131e-01	6.147262e-02	0.0	5.318639e-01	6.093655e-02	0.0	5.460747e-01	6.032108e-02	0.0	5.602274e-01	5.957265e-02	0.0	5.743120e-01	5.878128e-02	0.0	5.883073e-01	5.783957e-02	0.0	6.022055e-01	5.685326e-02	0.0	6.159897e-01	5.577447e-02	0.0	6.296475e-01	5.462454e-02	0.0	6.431689e-01	5.343202e-02	0.0	6.565370e-01	5.215043e-02	0.0	6.697473e-01	5.085547e-02	0.0	6.827818e-01	4.947899e-02	0.0	6.956367e-01	4.808765e-02	0.0	7.082990e-01	4.665075e-02	0.0	7.207611e-01	4.518415e-02	0.0	7.330162e-01	4.370146e-02	0.0	7.450534e-01	4.217827e-02	0.0	7.568719e-01	4.066395e-02	0.0	7.684581e-01	3.910384e-02	0.0	7.798146e-01	3.756074e-02	0.0	7.909308e-01	3.599289e-02	0.0	8.018073e-01	3.443589e-02	0.0	8.124383e-01	3.287479e-02	0.0	8.228223e-01	3.131958e-02	0.0	8.329579e-01	2.977650e-02	0.0	8.428421e-01	2.823711e-02	0.0	8.524771e-01	2.672306e-02	0.0	8.618587e-01	2.521070e-02	0.0	8.709918e-01	2.373127e-02	0.0	8.798722e-01	2.225536e-02	0.0	8.885056e-01	2.081207e-02	0.0	8.968905e-01	1.938321e-02	0.0	9.050310e-01	1.798172e-02	0.0	9.129284e-01	1.660297e-02	0.0	9.205855e-01	1.524701e-02	0.0	9.280067e-01	1.392206e-02	0.0	9.351928e-01	1.261437e-02	0.0	9.421503e-01	1.134060e-02	0.0	9.488808e-01	1.008772e-02	0.0	9.553897e-01	8.864213e-03	0.0	9.616816e-01	7.671003e-03	0.0	9.677588e-01	6.497384e-03	0.0	9.736276e-01	5.353367e-03	0.0	9.792925e-01	4.236524e-03	0.0	9.847575e-01	3.143696e-03	0.0	9.900275e-01	2.075164e-03	0.0	9.951070e-01	1.028680e-03	0.0	1.000000e+00	0.000000e+00	0.0	9.950075e-01	2.737954e-04	0.0	9.898274e-01	5.203515e-04	0.0	9.844550e-01	7.375129e-04	0.0	9.788854e-01	9.212927e-04	0.0	9.731140e-01	1.058151e-03	0.0	9.671365e-01	1.153163e-03	0.0	9.609487e-01	1.210505e-03	0.0	9.545463e-01	1.200848e-03	0.0	9.479256e-01	1.136516e-03	0.0	9.410825e-01	1.034805e-03	0.0	9.340145e-01	8.383345e-04	0.0	9.267170e-01	6.061839e-04	0.0	9.191879e-01	2.982302e-04	0.0	9.114242e-01	-7.392817e-05	0.0	9.034227e-01	-5.025729e-04	0.0	8.951832e-01	-1.021846e-03	0.0	8.867004e-01	-1.579165e-03	0.0	8.779779e-01	-2.250055e-03	0.0	8.690092e-01	-2.957713e-03	0.0	8.597984e-01	-3.765968e-03	0.0	8.503413e-01	-4.627329e-03	0.0	8.406409e-01	-5.573679e-03	0.0	8.306967e-01	-6.589269e-03	0.0	8.205097e-01	-7.674194e-03	0.0	8.100834e-01	-8.842153e-03	0.0	7.994170e-01	-1.006444e-02	0.0	7.885182e-01	-1.138158e-02	0.0	7.773845e-01	-1.274152e-02	0.0	7.660274e-01	-1.420238e-02	0.0	7.544448e-01	-1.570790e-02	0.0	7.426473e-01	-1.729633e-02	0.0	7.306374e-01	-1.893775e-02	0.0	7.184233e-01	-2.064116e-02	0.0	7.060116e-01	-2.239879e-02	0.0	6.934090e-01	-2.419963e-02	0.0	6.806254e-01	-2.604841e-02	0.0	6.676678e-01	-2.792716e-02	0.0	6.545468e-01	-2.983763e-02	0.0	6.412715e-01	-3.176732e-02	0.0	6.278525e-01	-3.370993e-02	0.0	6.143004e-01	-3.565547e-02	0.0	6.006277e-01	-3.760373e-02	0.0	5.868439e-01	-3.952735e-02	0.0	5.729655e-01	-4.145022e-02	0.0	5.589983e-01	-4.331110e-02	0.0	5.449622e-01	-4.515076e-02	0.0	5.308656e-01	-4.692300e-02	0.0	5.167233e-01	-4.862443e-02	0.0	5.025516e-01	-5.026722e-02	0.0	4.883567e-01	-5.176653e-02	0.0	4.741638e-01	-5.321382e-02	0.0	4.599744e-01	-5.446492e-02	0.0	4.458146e-01	-5.562298e-02	0.0	4.316936e-01	-5.662135e-02	0.0	4.176275e-01	-5.744278e-02	0.0	4.036352e-01	-5.816324e-02	0.0	3.897255e-01	-5.862271e-02	0.0	3.759204e-01	-5.900269e-02	0.0	3.622302e-01	-5.915434e-02	0.0	3.486719e-01	-5.918556e-02	0.0	3.352576e-01	-5.907619e-02	0.0	3.220014e-01	-5.880108e-02	0.0	3.089127e-01	-5.846553e-02	0.0	2.960066e-01	-5.794473e-02	0.0	2.832883e-01	-5.739028e-02	0.0	2.707706e-01	-5.672156e-02	0.0	2.584597e-01	-5.599787e-02	0.0	2.463634e-01	-5.521498e-02	0.0	2.344907e-01	-5.435476e-02	0.0	2.228439e-01	-5.347453e-02	0.0	2.114352e-01	-5.249595e-02	0.0	2.002622e-01	-5.150968e-02	0.0	1.893361e-01	-5.044287e-02	0.0	1.786556e-01	-4.935147e-02	0.0	1.682262e-01	-4.821098e-02	0.0	1.580510e-01	-4.702214e-02	0.0	1.481282e-01	-4.581459e-02	0.0	1.384665e-01	-4.453292e-02	0.0	1.290565e-01	-4.325608e-02	0.0	1.199119e-01	-4.188860e-02	0.0	1.110202e-01	-4.051957e-02	0.0	1.023894e-01	-3.909167e-02	0.0	9.401537e-02	-3.762872e-02	0.0	8.589449e-02	-3.614143e-02	0.0	7.803635e-02	-3.457488e-02	0.0	7.042341e-02	-3.300777e-02	0.0	6.307601e-02	-3.133507e-02	0.0	5.597712e-02	-2.963069e-02	0.0	4.912807e-02	-2.787405e-02	0.0	4.254794e-02	-2.599415e-02	0.0	3.621496e-02	-2.406602e-02	0.0	3.014500e-02	-2.202964e-02	0.0	2.436666e-02	-1.981801e-02	0.0	1.887371e-02	-1.746610e-02	0.0	1.370090e-02	-1.491164e-02	0.0	8.923984e-03	-1.205166e-02	0.0	4.718738e-03	-8.719505e-03	0.0	1.489344e-03	-4.706710e-03	0.0	8.643690e-01	-9.610853e-03	0.0	8.565828e-01	-1.268326e-02	0.0	4.037774e+01	1.028411e+01	0.0	3.922182e+01	-1.629301e+00	0.0	3.153335e+01	1.712139e+01	0.0	3.192323e+01	2.588359e+01	0.0	2.597021e+01	2.255072e+01	0.0	2.254261e+01	-4.438800e+00	0.0	2.696278e+01	-6.958535e+00	0.0	2.522759e+01	-2.209024e+00	0.0	3.446779e+01	-1.286320e+01	0.0	1.723865e+01	1.686260e+01	0.0	1.963480e+01	2.252404e+01	0.0	1.337505e+01	2.091078e+01	0.0	2.397585e+01	3.030413e+01	0.0	1.464068e+01	2.766168e+01	0.0	3.152058e+01	-2.451453e+01	0.0	4.168014e+00	3.927332e+01	0.0	1.477279e+01	3.654507e+01	0.0	5.681612e+00	-3.413005e+01	0.0	5.730268e+00	-4.227595e+01	0.0	1.469801e+01	-3.808400e+01	0.0	-3.257810e+00	-3.007690e+01	0.0	5.242458e+00	-2.687229e+01	0.0	8.148514e-01	1.004032e+01	0.0	2.965686e+00	8.434039e+00	0.0	3.118884e+00	1.053451e+01	0.0	3.053094e+00	2.905179e-01	0.0	3.064026e+00	-1.847734e-01	0.0	3.526726e+00	2.780017e-02	0.0	1.155562e+00	-1.056361e-01	0.0	1.180521e+00	-6.544269e-02	0.0	1.141862e+00	-6.463115e-02	0.0	1.210569e+00	2.762947e-02	0.0	1.173321e+00	3.487638e-02	0.0	1.171484e+00	4.342846e-03	0.0	1.070878e+00	5.241498e-02	0.0	1.076893e+00	3.199011e-02	0.0	1.092170e+00	4.409525e-02	0.0	1.029449e+00	-5.049099e-03	0.0	1.036184e+00	9.804942e-04	0.0	1.027297e+00	2.288695e-03	0.0	9.924551e-01	1.093040e-02	0.0	9.959883e-01	7.286481e-03	0.0	9.974344e-01	1.318027e-02	0.0	1.002855e+00	1.068937e-03	0.0	1.000323e+00	4.072008e-03	0.0	9.825714e-01	6.679831e-03	0.0	9.790707e-01	9.666195e-03	0.0	9.744716e-01	1.191850e-02	0.0	9.696787e-01	1.151575e-02	0.0	9.548954e-01	1.892755e-02	0.0	9.615719e-01	2.109929e-02	0.0	9.565467e-01	2.509643e-02	0.0	9.660913e-01	1.673502e-02	0.0	9.722431e-01	1.679940e-02	0.0	9.698686e-01	2.433856e-02	0.0	9.316529e-01	5.342269e-02	0.0	9.287871e-01	4.300630e-02	0.0	9.389242e-01	4.596454e-02	0.0	9.392061e-01	2.313675e-02	0.0	9.328377e-01	1.844833e-02	0.0	9.384412e-01	1.671654e-02	0.0	9.432390e-01	1.793985e-02	0.0	9.266870e-01	1.922774e-02	0.0	9.302229e-01	2.563931e-02	0.0	9.029588e-01	2.384358e-02	0.0	8.983202e-01	2.838882e-02	0.0	6.204057e-01	3.481450e-01	0.0	5.675945e-01	3.245019e-01	0.0	6.086216e-01	2.948989e-01	0.0	8.914898e-01	3.219140e-02	0.0	8.920291e-01	2.589172e-02	0.0	8.805552e-01	3.399601e-02	0.0	8.849391e-01	2.868309e-02	0.0	8.857857e-01	3.536933e-02	0.0	9.052136e-01	1.421660e-01	0.0	9.138319e-01	1.652247e-01	0.0	8.826796e-01	1.668328e-01	0.0	9.136229e-01	6.016639e-02	0.0	9.073699e-01	7.152715e-02	0.0	9.003439e-01	5.889964e-02	0.0	8.568704e-01	3.405994e-02	0.0	8.655221e-01	3.448009e-02	0.0	8.604521e-01	4.174666e-02	0.0	1.082581e+01	1.156033e+01	0.0	1.540739e+01	1.237576e+01	0.0	1.223601e+01	1.576308e+01	0.0	8.190109e-01	6.395947e-02	0.0	8.110918e-01	5.423062e-02	0.0	8.218122e-01	5.475747e-02	0.0	8.287243e-01	3.901443e-02	0.0	8.380806e-01	3.520177e-02	0.0	8.086635e-01	4.221867e-02	0.0	8.194732e-01	4.649455e-02	0.0	8.432698e-01	7.476708e-02	0.0	8.362271e-01	6.947560e-02	0.0	8.442651e-01	6.662998e-02	0.0	7.135630e-01	1.126981e-01	0.0	7.323100e-01	1.144980e-01	0.0	7.190478e-01	1.308990e-01	0.0	7.882319e-01	4.605134e-02	0.0	7.816422e-01	5.453762e-02	0.0	7.759239e-01	4.649911e-02	0.0	7.666
[...]
POINT_DATA 3184

SCALARS Density double 1
LOOKUP_TABLE default
1.292085e+00	1.291944e+00	1.291821e+00	1.291503e+00	1.291067e+00	1.290748e+00	1.290722e+00	1.291128e+00	1.291620e+00	1.291950e+00	1.292128e+00	1.292223e+00	1.292288e+00	1.292357e+00	1.292443e+00	1.292600e+00	1.292871e+00	1.293273e+00	1.293695e+00	1.293783e+00	1.293537e+00	1.293132e+00	1.292781e+00	1.292424e+00	1.561706e+00	1.221059e+00	1.048607e+00	9.201365e-01	8.665846e-01	8.421124e-01	8.416267e-01	8.382156e-01	8.353415e-01	8.399582e-01	8.437606e-01	8.448847e-01	8.515014e-01	8.535463e-01	8.541569e-01	8.573007e-01	8.569515e-01	8.589173e-01	8.604199e-01	8.616496e-01	8.606100e-01	8.599862e-01	8.622541e-01	8.620659e-01	8.632623e-01	8.630595e-01	8.634202e-01	8.615194e-01	8.610719e-01	8.595435e-01	8.564747e-01	8.571102e-01	8.546168e-01	8.533852e-01	8.509951e-01	8.497561e-01	8.476251e-01	8.444187e-01	8.426745e-01	8.393132e-01	8.377440e-01	8.349038e-01	8.326183e-01	8.298369e-01	8.263319e-01	8.243650e-01	8.202180e-01	8.177950e-01	8.129715e-01	8.076778e-01	8.030617e-01	7.971936e-01	7.924148e-01	7.858952e-01	7.824025e-01	7.748854e-01	7.620955e-01	7.601823e-01	8.513213e-01	1.077014e+00	1.182780e+00	1.180720e+00	1.164163e+00	1.159962e+00	1.163290e+00	1.164228e+00	1.166315e+00	1.169089e+00	1.173400e+00	1.177415e+00	1.181980e+00	1.187679e+00	1.192526e+00	1.198253e+00	1.203525e+00	1.209445e+00	1.214816e+00	1.220586e+00	1.225962e+00	1.231579e+00	1.237004e+00	1.242627e+00	1.248492e+00	1.253764e+00	1.259669e+00	1.265089e+00	1.271076e+00	1.276655e+00	1.282731e+00	1.289023e+00	1.295056e+00	1.301908e+00	1.308473e+00	1.315766e+00	1.324257e+00	1.332514e+00	1.342913e+00	1.357678e+00	1.378023e+00	1.356980e+00	1.435171e+00	1.422183e+00	1.423921e+00	1.424563e+00	1.425125e+00	1.426682e+00	1.427653e+00	1.426569e+00	1.427691e+00	1.427043e+00	1.425771e+00	1.425445e+00	1.423503e+00	1.422823e+00	1.420584e+00	1.419475e+00	1.417335e+00	1.414749e+00	1.412753e+00	1.409782e+00	1.407492e+00	1.404165e+00	1.401451e+00	1.397918e+00	1.394840e+00	1.391115e+00	1.387713e+00	1.383934e+00	1.379524e+00	1.375448e+00	1.370390e+00	1.365683e+00	1.360294e+00	1.354912e+00	1.349197e+00	1.343129e+00	1.336923e+00	1.330293e+00	1.323623e+00	1.316699e+00	1.309313e+00	1.302152e+00	1.293931e+00	1.285806e+00	1.277655e+00	1.268637e+00	1.260400e+00	1.250221e+00	1.241756e+00	1.231590e+00	1.222477e+00	1.215756e+00	1.207689e+00	1.202726e+00	1.195801e+00	1.193326e+00	1.192592e+00	1.192382e+00	1.196433e+00	1.199280e+00	1.205779e+00	1.210445e+00	1.217655e+00	1.225982e+00	1.232690e+00	1.240752e+00	1.246578e+00	1.253797e+00	1.259049e+00	1.265260e+00	1.271541e+00	1.277065e+00	1.283742e+00	1.289108e+00	1.296077e+00	1.301593e+00	1.308729e+00	1.314657e+00	1.321305e+00	1.329416e+00	1.336016e+00	1.345121e+00	1.351920e+00	1.361745e+00	1.370248e+00	1.379404e+00	1.392769e+00	1.402229e+00	1.416573e+00	1.432147e+00	1.446399e+00	1.466726e+00	1.491511e+00	1.515332e+00	1.551091e+00	1.588577e+00	1.627633e+00	1.672381e+00	1.409305e+00	1.406508e+00	1.291973e+00	1.292146e+00	1.291758e+00	1.291539e+00	1.291375e+00	1.292618e+00	1.292740e+00	1.292275e+00	1.292714e+00	1.290949e+00	1.291036e+00	1.290387e+00	1.291166e+00	1.290519e+00	1.293030e+00	1.290334e+00	1.290621e+00	1.294338e+00	1.294022e+00	1.293927e+00	1.294420e+00	1.294829e+00	1.284438e+00	1.284643e+00	1.285802e+00	1.292663e+00	1.295287e+00	1.293113e+00	1.340871e+00	1.337999e+00	1.344061e+00	1.316775e+00	1.321025e+00	1.321410e+00	1.337853e+00	1.338219e+00	1.334371e+00	1.362352e+00	1.344901e+00	1.351006e+00	1.359240e+00	1.358603e+00	1.362024e+00	1.352415e+00	1.392101e+00	1.339160e+00	1.332972e+00	1.326708e+00	1.319828e+00	1.304616e+00	1.312500e+00	1.307969e+00	1.316757e+00	1.324270e+00	1.322281e+00	1.291393e+00	1.287860e+00	1.295871e+00	1.290697e+00	1.283089e+00	1.287551e+00	1.292519e+00	1.277994e+00	1.283562e+00	1.260719e+00	1.259216e+00	1.072939e+00	9.798537e-01	1.033283e+00	1.255749e+00	1.253226e+00	1.248904e+00	1.249556e+00	1.253177e+00	1.271809e+00	1.273747e+00	1.259940e+00	1.279026e+00	1.275552e+00	1.270256e+00	1.232650e+00	1.238646e+00	1.238684e+00	1.290157e+00	1.290944e+00	1.290251e+00	1.222047e+00	1.214051e+00	1.220285e+00	1.216894e+00	1.220865e+00	1.206604e+00	1.215088e+00	1.238245e+00	1.233006e+00	1.237283e+00	1.190705e+00	1.195019e+00	1.192027e+00	1.196862e+00	1.197816e+00	1.190566e+00	1.185584e+00	1.213864e+00	1.208180e+00	1.214701e+00	1.288716e+00	1.288050e+00	1.289018e+00	1.175953e+00	1.176315e+00	1.182763e+00	1.179097e+00	1.184458e+00	1.199468e+00	1.210626e+00	1.203166e+00	1.169910e+00	1.169666e+00	1.185656e+00	1.187502e+00	1.204862e+00	1.176216e+00	1.168807e+00	1.198994e+00	1.203924e+00	1.156212e+00	1.219627e+00	1.178960e+00	9.872500e-01	1.197365e+00	1.209911e+00	1.206987e+00	8.562626e-01	8.661392e-01	8.488892e-01	1.074840e+00	1.110904e+00	1.087799e+00	7.873242e-01	7.733940e-01	7.942923e-01	8.013729e-01	8.069952e-01	8.135682e-01	7.977700e-01	8.107112e-01	8.322297e-01	8.367446e-01	8.347391e-01	8.276517e-01	8.267735e-01	8.362055e-01	8.816407e-01	8.718616e-01	1.202914e+00	1.193086e+00	1.173637e+00	1.146418e+00	1.185003e+00	1.195564e+00	8.636441e-01	8.543536e-01	8.555064e-01	8.704973e-01	8.682714e-01	8.392622e-01	8.406465e-01	8.444183e-01	8.620991e-01	8.560207e-01	8.555892e-01	8.496902e-01	8.490341e-01	9.806455e-01	9.626757e-01	9.505681e-01	1.270030e+00	1.276386e+00	1.276805e+00	8.619973e-01	8.753347e-01	8.834814e-01	8.854740e-01	8.661910e-01	1.114263e+00	1.042916e+00	1.072768e+00	8.707007e-01	8.723447e-01	8.779697e-01	1.290621e+00	1.291188e+00	1.290743e+00	8.665131e-01	8.660719e-01	8.837328e-01	9.071178e-01	9.008601e-01	9.088571e-01	8.753028e-01	8.762231e-01	9.133249e-01	9.169989e-01	9.072088e-01	8.961020e-01	9.079140e-01	9.028185e-01	9.210966e-01	9.204108e-01	8.767872e-01	8.735530e-01	8.867619e-01	9.268324e-01	9.263818e-01	9.387601e-01	8.768862e-01	8.936119e-01	8.912884e-01	8.789692e-01	8.684255e-01	8.787746e-01	8.722978e-01	8.919173e-01	8.722333e-01	1.290665e+00	1.290286e+00	1.291015e+00	1.025952e+00	1.040866e+00	1.081866e+00	8.954087e-01	8.885191e-01	8.742344e-01	1.291461e+00	1.291158e+00	1.291598e+00	1.291873e+00	8.671050e-01	1.291666e+00	1.291780e+00	1.291988e+00	1.291991e+00	1.291658e+00	1.291906e+00	1.291351e+00	1.292415e+00	1.292373e+00	1.292510e+00	1.292213e+00	1.292657e+00	1.292192e+00	1.292986e+00	1.292655e+00	1.292712e+00	1.293055e+00	1.292881e+00	1.296750e+00	1.294888e+00	1.294904e+00	1.294056e+00	1.294695e+00	1.294475e+00	1.293768e+00	1.356493e+00	1.362311e+00	1.350364e+00	1.395007e+00	1.392247e+00	1.398310e+00	1.303013e+00	1.300676e+00	1.300872e+00	1.293938e+00	1.293540e+00	1.624303e+00	1.609729e+00	1.640823e+00	1.662174e+00	1.619298e+00	1.304851e+00	1.303193e+00	1.302264e+00	1.526312e+00	1.544175e+00	1.528222e+00	1.486919e+00	1.474792e+00	1.491717e+00	1.412745e+00	1.410262e+00	1.460916e+00	1.445497e+00	1.414265e+00	1.430816e+00	1.426148e+00	1.423131e+00	1.424564e+00	1.299308e+00	1.290732e+00	1.288639e+00	1.462810e+00	1.470190e+00	1.474134e+00	1.429703e+00	1.419619e+00	1.384516e+00	1.375131e+00	1.376484e+00	1.405187e+00	1.418199e+00	1.420080e+00	1.376522e+00	1.377939e+00	1.366264e+00	1.382493e+00	1.360366e+00	1.343763e+00	1.352080e+00	1.347746e+00	1.338081e+00	1.329893e+00	1.330298e+00	1.320226e+00	1.323283e+00	1.305670e+00	1.309484e+00	1.296516e+00	1.297762e+00	1.298109e+00	1.307554e+00	1.307794e+00	1.299699e+00	1.335312e+00	1.324603e+00	1.319784e+00	1.278386e+00	1.280930e+00	1.286583e+00	1.301928e+00	1.295307e+00	1.285837e+00	1.285678e+00	1.271399e+00	1.262566e+00	1.256139e+00	1.253821e+00	1.258950e+00	1.263380e+00	1.266834e+00	1.274319e+00	1.256868e+00	1.249276e+00	1.248717e+00	1.227166e+00	1.232253e+00	1.224060e+00	1.219303e+00	1.216876e+00	1.212064e+00	1.219537e+00	1.226487e+00	1.300442e+00	1.308214e+00	1.201059e+00	1.205662e+00	1.207535e+00	1.198368e+00	1.202932e+00	1.200085e+00	1.225430e+00	1.215962e+00	1.220565e+00	1.212028e+00	1.249690e+00	1.242687e+00	1.251378e+00	1.253657e+00	1.247894e+00	1.254812e+00	1.231889e+00	1.240207e+00	1.248279e+00	1.247141e+00	1.254308e+00	1.281978e+00	1.288787e+00	1.267467e+00	1.259158e+00	1.292463e+00	1.288122e+00	1.281875e+00	1.318291e+00	1.320382e+00	1.313552e+00	1.302888e+00	1.296448e+00	1.295013e+00	1.305596e+00	1.299472e+00	1.299161e+00	1.333915e+00	1.337057e+00	1.338427e+00	1.329607e+00	1.373117e+00	1.368300e+00	1.372244e+00	1.340469e+00	1.341872e+00	1.344506e+00	1.321837e+00	1.311844e+00	1.315597e+00	1.347812e+00	1.352745e+00	1.352266e+00	1.367868e+00	1.367178e+00	1.365044e+00	1.368734e+00	1.370764e+00	1.367230e+00	1.371749e+00	1.367778e+00	1.424413e+00	1.422566e+00	1.418712e+00	1.421039e+00	1.418390e+00	1.416096e+00	1.400395e+00	1.399492e+00	1.402126e+00	1.404448e+00	1.407868e+00	1.404967e+00	1.404794e+00	1.394159e+00	1.399448e+00	1.395881e+00	1.422773e+00	1.420883e+00	1.418123e+00	1.417645e+00	1.415415e+00	1.412492e+00	1.411967e+00	1.414363e+00	1.397833e+00	1.399735e+00	1.402680e+00	1.292460e+00	1.285216e+00	1.284133e+00	1.286880e+00	1.291861e+00	1.292077e+00	9.512633e-01	9.452893e-01	9.738132e-01	1.291827e+00	1.291931e+00	1.291782e+00	1.289523e+00	1.288914e+00	1.293080e+00	1.423256e+00	1.424141e+00	1.420709e+00	1.590357e+00	1.531749e+00	1.572387e+00	1.294140e+00	1.292963e+00	1.293347e+00	1.294018e+00	1.294101e+00	1.293581e+00	1.292267e+00	1.293444e+00	1.294126e+00	1.293890e+00	1.294060e+00	1.294690e+00	1.294003e+00	1.293827e+00	1.294819e+00	1.289734e+00	1.289441e+00	1.297637e+00	1.297755e+00	1.296733e+00	1.416860e+00	1.414618e+00	1.412308e+00	1.294242e+00	1.293780e+00	1.267133e+00	1.252151e+00	1.271001e+00	1.289884e+00	1.292570e+00	1.292383e+00	1.292213e+00	1.293030e+00	1.289429e+00	1.289926e+00	1.293498e+00	1.294463e+00	1.293791e+00	1.293588e+00	1.293073e+00	1.294198e+00	1.291380e+00	1.291956e+00	1.292105e+00	1.293453e+00	1.293482e+00	1.094194e+00	1.155948e+00	1.290107e+00	1.289196e+00	1.295817e+00	1.295871e+00	1.397498e+00	1.387896e+00	1.401262e+00	1.289404e+00	1.289773e+00	1.288975e+00	1.292543e+00	1.291877e+00	1.294658e+00	1.288809e+00	1.290294e+00	1.289319e+00	1.292228e+00	1.291548e+00	1.291693e+00	1.297402e+00	1.297676e+00	1.298992e+00	1.306645e+00	1.298401e+00	1.304743e+00	1.291391e+00	1.291749e+00	1.291762e+00	1.288374e+00	1.291844e+00	1.292560e+00	1.292208e+00	1.291549e+00	1.294423e+00	1.295029e+00	1.294749e+00	1.288520e+00	1.287500e+00	1.287388e+00	1.292470e+00	1.287147e+00	1.284462e+00	1.286952e+00	1.291330e+00	1.291070e+00	1.290157e+00	1.290910e+00	1.292590e+00	1.295369e+00	1.293149e+00	1.293303e+00	1.292845e+00	1.287128e+00	1.287137e+00	1.285389e+00	1.293459e+00	1.293420e+00	1.295075e+00	1.295285e+00	1.291701e+00	1.292466e+00	1.291884e+00	1.422582e+00	1.292864e+00	1.293272e+00	1.294992e+00	1.290450e+00	1.292155e+00	1.293012e+00	1.292565e+00	1.292954e+00	1.291432e+00	1.617848e+00	1.590530e+00	1.296421e+00	1.295233e+00	1.291011e+00	1.296095e+00	1.295362e+00	1.296503e+00	1.290727e+00	1.291076e+00	1.293326e+00	1.285532e+00	1.288162e+00	1.295813e+00	1.294243e+00	1.296697e+00	1.292460e+00	1.292844e+00	1.292146e+00	1.292938e+00	1.292236e+00	1.298652e+00	1.299222e+00	1.287659e+00	1.292405e+00	1.292775e+00	1.291810e+00	1.289298e+00	1.296092e+00	1.296954e+00	1.300114e+00	1.299750e+00	1.298030e+00	1.294557e+00	1.286226e+00	1.290235e+00	1.290496e+00	1.289551e+00	1.294701e+00	1.295732e+00	1.298420e+00	1.298871e+00	1.303726e+00	1.298953e+00	1.301648e+00	9.169084e-01	9.205904e-01	9.045896e-01	1.291795e+00	1.290778e+00	1.292752e+00	1.247926e+00	1.267657e+00	1.263413e+00	1.291805e+00	1.298376e+00	1.300175e+00	1.298908e+00	1.289817e+00	1.288625e+00	1.286705e+00	1.295014e+00	1.296332e+00	1.295150e+00	1.287433e+00	1.285200e+00	1.292703e+00	1.295355e+00	1.300616e+00	1.298461e+00	1.300026e+00	1.279564e+00	1.282964e+00	1.277875e+00	1.301325e+00	1.303334e+00	1.322115e+00	1.315515e+00	1.319881e+00	1.296302e+00	1.296751e+00	1.293111e+00	1.295454e+00	1.296669e+00	1.297313e+00	1.296292e+00	1.290811e+00	1.291434e+00	1.291413e+00	1.290789e+00	1.290809e+00	8.737818e-01	8.788313e-01	9.045060e-01	1.289169e+00	1.288083e+00	1.289752e+00	1.299312e+00	1.297847e+00	1.291616e+00	1.291500e+00	1.291925e+00	1.293934e+00	1.295120e+00	1.285451e+00	1.282550e+00	1.299425e+00	1.298650e+00	1.283245e+00	1.285000e+00	1.281131e+00	1.281521e+00	1.293837e+00	1.294796e+00	1.295030e+00	1.293795e+00	1.295628e+00	1.288677e+00	1.288825e+00	1.296300e+00	1.300510e+00	1.301662e+00	1.286671e+00	1.286419e+00	1.282498e+00	1.295122e+00	1.297115e+00	1.296503e+00	1.286608e+00	1.289330e+00	1.305770e+00	1.306136e+00	1.308639e+00	1.307958e+00	1.290983e+00	1.291743e+00	1.291185e+00	1.265471e+00	1.261076e+00	1.260436e+00	1.292498e+00	1.292719e+00	1.295904e+00	1.292075e+00	1.293422e+00	1.287054e+00	1.284375e+00	1.295517e+00	1.298852e+00	1.278477e+00	1.282564e+00	1.220337e+00	1.228300e+00	1.241549e+00	1.302043e+00	1.301578e+00	1.305667e+00	1.304000e+00	1.303773e+00	1.295047e+00	1.291746e+00	1.278518e+00	1.271379e+00	1.300327e+00	1.298056e+00	1.334618e+00	1.333064e+00	1.328593e+00	1.301071e+00	1.277161e+00	1.280934e+00	1.304948e+00	1.307193e+00	1.308327e+00	1.297168e+00	1.194439e+00	1.123303e+00	1.178412e+00	1.281193e+00	1.298427e+00	1.310234e+00	1.282311e+00	1.283920e+00	1.291742e+00	1.292008e+00	1.291672e+00	1.272763e+00	1.288281e+00	1.306186e+00	1.309656e+00	1.308651e+00	1.475679e+00	1.474362e+00	1.490568e+00	1.293577e+00	1.303016e+00	1.300646e+00	1.302583e+00	8.656905e-01	1.293557e+00	1.291978e+00	1.303936e+00	1.306128e+00	1.307056e+00	1.249790e+00	1.256927e+00	1.272898e+00	1.274926e+00	1.301683e+00	1.320010e+00	1.321671e+00	1.322438e+00	1.316118e+00	1.313650e+00	1.317668e+00	1.315724e+00	1.314002e+00	1.311931e+00	1.286672e+00	1.292204e+00	1.290977e+00	1.292128e+00	1.296577e+00	1.299579e+00	1.298939e+00	1.312745e+00	1.312734e+00	1.290618e+00	1.292988e+00	1.287715e+00	1.288813e+00	1.284988e+00	1.289594e+00	1.286601e+00	1.291541e+00	1.260413e+00	1.252424e+00	1.224910e+00	1.315077e+00	1.317713e+00	1.315367e+00	1.327577e+00	1.325558e+00	1.333041e+00	1.296044e+00	1.294376e+00	1.276535e+00	1.275067e+00	1.266667e+00	1.267500e+00	1.312370e+00	1.310170e+00	1.309477e+00	1.307506e+00	1.269439e+00	1.264269e+00	1.257068e+00	1.276323e+00	1.267470e+00	1.278988e+00	1.274628e+00	1.280752e+00	1.301681e+00	1.303217e+00	1.304127e+00	1.299193e+00	1.297216e+00	1.299800e+00	1.234026e+00	1.245071e+00	1.123669e+00	1.306287e+00	1.303935e+00	1.301165e+00	1.303071e+00	1.301323e+00	1.296268e+00	1.303232e+00	1.299417e+00	1.300360e+00	1.295530e+00	1.315243e+00	1.310496e+00	1.311795e+00	1.293908e+00	1.294041e+00	1.297031e+00	1.294032e+00	1.312600e+00	1.356294e+00	1.333230e+00	1.360724e+00	1.289828e+00	1.292235e+00	1.289512e+00	1.286875e+00	1.292522e+00	1.283894e+00	1.308887e+00	1.306782e+00	1.303643e+00	9.906037e-01	9.924548e-01	9.185277e-01	1.316533e+00	1.320484e+00	1.318681e+00	1.407441e+00	1.404569e+00	1.410169e+00	1.277258e+00	1.270476e+00	1.325316e+00	1.320882e+00	1.321319e+00	1.314177e+00	1.268100e+00	1.223613e+00	1.212306e+00	1.309402e+00	1.307658e+00	1.312556e+00	1.235283e+00	1.235481e+00	1.304027e+00	1.301353e+00	1.302755e+00	1.311222e+00	1.305800e+00	1.305108e+00	1.302356e+00	1.306736e+00	1.296521e+00	1.253345e+00	1.261550e+00	1.244794e+00	1.422277e+00	1.419377e+00	7.777587e-01	7.613607e-01	1.254883e+00	1.313713e+00	1.318971e+00	1.320119e+00	1.320449e+00	1.324468e+00	1.307327e+00	1.309314e+00	1.304944e+00	1.290449e+00	1.285698e+00	1.280055e+00	1.271596e+00	1.246704e+00	1.229554e+00	1.248408e+00	1.276678e+00	1.259842e+00	1.278750e+00	1.287480e+00	1.291327e+00	1.300258e+00	1.302006e+00	1.304171e+00	1.325807e+00	1.323344e+00	1.301356e+00	1.302331e+00	1.310965e+00	1.317484e+00	1.262043e+00	1.272594e+00	1.277814e+00	1.329632e+00	1.344475e+00	1.340207e+00	1.297061e+00	1.301973e+00	1.302969e+00	1.342411e+00	1.333966e+00	1.338842e+00	1.319921e+00	1.258983e+00	1.276937e+00	1.312574e+00	1.310664e+00	1.301909e+00	1.322086e+00	1.320249e+00	1.323236e+00	1.330564e+00	1.336650e+00	1.341065e+00	1.284607e+00	1.284962e+00	1.329159e+00	1.312578e+00	1.309621e+00	1.316892e+00	1.299429e+00	1.296018e+00	1.298332e+00	1.294529e+00	1.290593e+00	1.263497e+00	1.149732e+00	1.187890e+00	1.180340e+00	1.311149e+00	1.300851e+00	1.280616e+00	1.278383e+00	1.251584e+00	1.246691e+00	1.244484e+00	1.287285e+00	1.139166e+00	1.192506e+00	1.372528e+00	1.363732e+00	1.361184e+00	1.349716e+00	1.352683e+00	1.341232e+00	8.476639e-01	1.193802e+00	1.229541e+00	1.298201e+00	1.289978e+00	1.290762e+00	1.207092e+00	1.291303e+00	1.285065e+00	1.298960e+00	1.305255e+00	1.318758e+00	1.314103e+00	1.308082e+00	1.307367e+00	1.304359e+00	1.323965e+00	1.323456e+00	1.288042e+00	1.284091e+00	1.303157e+00	1.312316e+00	1.305844e+00	1.304620e+00	1.300263e+00	1.302104e+00	1.296512e+00	1.298640e+00	1.046379e+00	9.972731e-01	1.018752e+00	8.292453e-01	8.298210e-01	8.407395e-01	1.320175e+00	1.318644e+00	1.279226e+00	1.271221e+00	1.328587e+00	1.328868e+00	1.424172e+00	1.280502e+00	1.287827e+00	1.232655e+00	1.231109e+00	1.318628e+00	1.325820e+00	1.321375e+00	1.315120e+00	1.171683e+00	1.115623e+00	1.145203e+00	1.217468e+00	1.321737e+00	1.330922e+00	1.333420e+00	1.339556e+00	1.337775e+00	1.346821e+00	1.344048e+00	1.319139e+00	1.331509e+00	1.327265e+00	1.305014e+00	1.311366e+00	1.238364e+00	1.321063e+00	1.322324e+00	1.338471e+00	1.334095e+00	1.332955e+00	1.210589e+00	1.205994e+00	1.261330e+00	1.309725e+00	1.292313e+00	1.305175e+00	1.297166e+00	1.297629e+00	1.300001e+00	1.298742e+00	1.306008e+00	1.325170e+00	1.329941e+00	1.309572e+00	1.329129e+00	1.333519e+00	1.343914e+00	1.322055e+00	1.318165e+00	1.330447e+00	1.255327e+00	9.347160e-01	9.382514e-01	9.720212e-01	1.226801e+00	1.225029e+00	1.025903e+00	1.169096e+00	1.119841e+00	1.319119e+00	1.325302e+00	1.144307e+00	1.294125e+00	1.327754e+00	1.323584e+00	1.325777e+00	1.357108e+00	1.349202e+00	1.357167e+00	1.341463e+00	1.335070e+00	1.296367e+00	1.298411e+00	8.592106e-01	1.023768e+00	1.028332e+00	1.071409e+00	1.225255e+00	1.206646e+00	1.167346e+00	1.286393e+00	1.284030e+00	1.272452e+00	1.318687e+00	1.315160e+00	1.329268e+00	1.326394e+00	1.326158e+00	1.324237e+00	1.331565e+00	1.310638e+00	1.155295e+00	1.141058e+00	1.114263e+00	1.002669e+00	1.001774e+00	1.046394e+00	1.187785e+00	1.215711e+00	1.177046e+00	1.091050e+00	1.343447e+00	1.347745e+00	1.348713e+00	1.338929e+00	1.336233e+00	1.356053e+00	1.350263e+00	1.329848e+00	1.320906e+00	1.324533e+00	1.326151e+00	1.314496e+00	1.318571e+00	1.326880e+00	1.321464e+00	1.308359e+00	1.378624e+00	1.398346e+00	1.386064e+00	1.307569e+00	1.308218e+00	1.312254e+00	1.314616e+00	1.319715e+00	1.280838e+00	1.269598e+00	1.282642e+00	1.257353e+00	1.275444e+00	1.288536e+00	1.294386e+00	1.286330e+00	1.291745e+00	1.310157e+00	1.322493e+00	1.316833e+00	1.307882e+00	1.312970e+00	1.354063e+00	1.332311e+00	1.323824e+00	1.312711e+00	1.309045e+00	1.306760e+00	1.256715e+00	1.236362e+00	1.244703e+00	1.043293e+00	8.679972e-01	8.567139e-01	8.540422e-01	8.492807e-01	1.315835e+00	1.102263e+00	9.683155e-01	1.316357e+00	1.313428e+00	1.310026e+00	1.303938e+00	1.306265e+00	1.329455e+00	1.346902e+00	1.343501e+00	8.234917e-01	8.332978e-01	9.379745e-01	9.592744e-01	1.350247e+00	1.347133e+00	1.329778e+00	1.319854e+00	1.295800e+00	1.293046e+00	1.285260e+00	1.211867e+00	1.221196e+00	1.335457e+00	1.339164e+00	1.202374e+00	1.208612e+00	1.106492e+00	1.177449e+00	1.183205e+00	1.335877e+00	1.344100e+00	1.315861e+00	1.334568e+00	1.329441e+00	1.325806e+00	1.332022e+00	1.336683e+00	1.099320e+00	1.065774e+00	1.086468e+00	1.126032e+00	1.319182e+00	1.365591e+00	1.365674e+00	1.359576e+00	1.318433e+00	1.307477e+00	1.338946e+00	1.351983e+00	1.330673e+00	1.258229e+00	1.258472e+00	1.376922e+00	1.373775e+00	1.387304e+00	1.428259e+00	1.421780e+00	1.409258e+00	1.406113e+00	1.417605e+00	1.349912e+00	1.345988e+00	1.283578e+00	1.279122e+00	1.268080e+00	1.434151e+00	1.351223e+00	1.348267e+00	1.338669e+00	1.316280e+00	1.309278e+00	1.294609e+00	1.305365e+00	1.292561e+00	1.273505e+00	1.082415e+00	1.321049e+00	1.311727e+00	1.320358e+00	1.332017e+00	1.331409e+00	1.352510e+00	1.361934e+00	1.390823e+00	1.214345e+00	1.179799e+00	1.343451e+00	1.379428e+00	1.377561e+00	1.372349e+00	1.305032e+00	1.311198e+00	1.312166e+00	1.304687e+00	1.178601e+00	1.170820