# vtk DataFile Version 3.0
vtk output
ASCII
DATASET UNSTRUCTURED_GRID
POINTS 1842 double
1.000000e+02	0.000000e+00	0.0	9.917900e+01	1.278772e+01	0.0	9.672949e+01	2.536546e+01	0.0	9.269168e+01	3.752670e+01	0.0	8.713187e+01	4.907176e+01	0.0	8.014136e+01	5.981105e+01	0.0	7.183494e+01	6.956826e+01	0.0	6.234898e+01	7.818315e+01	0.0	5.183926e+01	8.551428e+01	0.0	4.047833e+01	9.144126e+01	0.0	2.845276e+01	9.586679e+01	0.0	1.595999e+01	9.871818e+01	0.0	3.205158e+00	9.994862e+01	0.0	-9.602303e+00	9.953791e+01	0.0	-2.225209e+01	9.749279e+01	0.0	-3.453651e+01	9.384684e+01	0.0	-4.625383e+01	8.865993e+01	0.0	-5.721167e+01	8.201723e+01	0.0	-6.723009e+01	7.402780e+01	0.0	-7.614460e+01	6.482284e+01	0.0	-8.380881e+01	5.455349e+01	0.0	-9.009689e+01	4.338837e+01	0.0	-9.490557e+01	3.151082e+01	0.0	-9.815592e+01	1.911586e+01	0.0	-9.979454e+01	6.407022e+00	0.0	-9.979454e+01	-6.407022e+00	0.0	-9.815592e+01	-1.911586e+01	0.0	-9.490557e+01	-3.151082e+01	0.0	-9.009689e+01	-4.338837e+01	0.0	-8.380881e+01	-5.455349e+01	0.0	-7.614460e+01	-6.482284e+01	0.0	-6.723009e+01	-7.402780e+01	0.0	-5.721167e+01	-8.201723e+01	0.0	-4.625383e+01	-8.865993e+01	0.0	-3.453651e+01	-9.384684e+01	0.0	-2.225209e+01	-9.749279e+01	0.0	-9.602303e+00	-9.953791e+01	0.0	3.205158e+00	-9.994862e+01	0.0	1.595999e+01	-9.871818e+01	0.0	2.845276e+01	-9.586679e+01	0.0	4.047833e+01	-9.144126e+01	0.0	5.183926e+01	-8.551428e+01	0.0	6.234898e+01	-7.818315e+01	0.0	7.183494e+01	-6.956826e+01	0.0	8.014136e+01	-5.981105e+01	0.0	8.713187e+01	-4.907176e+01	0.0	9.269168e+01	-3.752670e+01	0.0	9.672949e+01	-2.536546e+01	0.0	9.917900e+01	-1.278772e+01	0.0	0.000000e+00	0.000000e+00	0.0	3.009476e-03	3.992876e-03	0.0	6.131539e-03	8.135129e-03	0.0	1.049921e-02	1.125283e-02	0.0	1.508743e-02	1.442149e-02	0.0	2.037618e-02	1.674720e-02	0.0	2.586407e-02	1.913170e-02	0.0	3.172818e-02	2.113162e-02	0.0	3.781177e-02	2.315181e-02	0.0	4.420971e-02	2.489796e-02	0.0	5.086584e-02	2.651688e-02	0.0	5.784604e-02	2.773187e-02	0.0	6.511231e-02	2.845653e-02	0.0	7.265942e-02	2.877314e-02	0.0	8.042970e-02	2.823885e-02	0.0	8.844022e-02	2.760364e-02	0.0	9.669530e-02	2.695098e-02	0.0	1.052116e-01	2.680602e-02	0.0	1.139870e-01	2.701640e-02	0.0	1.229308e-01	2.810991e-02	0.0	1.320881e-01	2.961984e-02	0.0	1.414131e-01	3.156197e-02	0.0	1.508990e-01	3.396881e-02	0.0	1.606281e-01	3.644309e-02	0.0	1.705206e-01	3.927623e-02	0.0	1.806532e-01	4.217814e-02	0.0	1.910296e-01	4.512790e-02	0.0	2.016498e-01	4.811482e-02	0.0	2.125022e-01	5.116705e-02	0.0	2.236651e-01	5.396881e-02	0.0	2.350786e-01	5.673017e-02	0.0	2.467394e-01	5.941257e-02	0.0	2.587628e-01	6.142065e-02	0.0	2.709968e-01	6.346391e-02	0.0	2.835234e-01	6.474736e-02	0.0	2.963078e-01	6.550510e-02	0.0	3.092803e-01	6.615534e-02	0.0	3.224291e-01	6.533632e-02	0.0	3.357462e-01	6.450682e-02	0.0	3.491845e-01	6.326260e-02	0.0	3.627404e-01	6.169204e-02	0.0	3.764318e-01	6.013101e-02	0.0	3.902870e-01	5.899188e-02	0.0	4.042501e-01	5.784389e-02	0.0	4.183306e-01	5.757709e-02	0.0	4.325098e-01	5.800825e-02	0.0	4.467457e-01	5.856058e-02	0.0	4.609183e-01	6.049866e-02	0.0	4.751279e-01	6.244179e-02	0.0	4.893338e-01	6.456436e-02	0.0	5.035281e-01	6.681585e-02	0.0	5.177234e-01	6.900040e-02	0.0	5.320025e-01	7.034078e-02	0.0	5.462444e-01	7.167766e-02	0.0	5.604669e-01	7.198522e-02	0.0	5.746463e-01	7.155773e-02	0.0	5.887342e-01	7.099991e-02	0.0	6.026269e-01	6.918912e-02	0.0	6.164122e-01	6.739233e-02	0.0	6.300022e-01	6.514456e-02	0.0	6.434059e-01	6.258117e-02	0.0	6.566646e-01	6.003792e-02	0.0	6.697136e-01	5.725317e-02	0.0	6.825978e-01	5.450360e-02	0.0	6.953063e-01	5.178816e-02	0.0	7.078297e-01	4.910819e-02	0.0	7.201598e-01	4.646956e-02	0.0	7.323119e-01	4.398577e-02	0.0	7.442581e-01	4.156033e-02	0.0	7.560075e-01	3.928012e-02	0.0	7.675690e-01	3.722479e-02	0.0	7.789019e-01	3.521011e-02	0.0	7.900569e-01	3.358279e-02	0.0	8.009767e-01	3.201170e-02	0.0	8.116742e-01	3.062500e-02	0.0	8.221367e-01	2.934912e-02	0.0	8.323523e-01	2.811302e-02	0.0	8.423201e-01	2.692000e-02	0.0	8.520337e-01	2.572967e-02	0.0	8.614793e-01	2.443651e-02	0.0	8.706745e-01	2.317763e-02	0.0	8.796012e-01	2.182516e-02	0.0	8.882753e-01	2.047909e-02	0.0	8.966970e-01	1.913573e-02	0.0	9.048629e-01	1.776100e-02	0.0	9.127871e-01	1.642698e-02	0.0	9.204632e-01	1.508146e-02	0.0	9.279016e-01	1.376629e-02	0.0	9.351050e-01	1.247837e-02	0.0	9.420751e-01	1.120684e-02	0.0	9.488202e-01	9.975877e-03	0.0	9.553385e-01	8.753510e-03	0.0	9.616403e-01	7.571748e-03	0.0	9.677256e-01	6.406919e-03	0.0	9.736026e-01	5.277787e-03	0.0	9.792727e-01	4.167295e-03	0.0	9.847432e-01	3.087789e-03	0.0	9.900177e-01	2.032279e-03	0.0	9.951006e-01	9.977448e-04	0.0	1.000000e+00	0.000000e+00	0.0	9.950063e-01	2.439228e-04	0.0	9.898228e-01	4.370430e-04	0.0	9.844456e-01	5.786951e-04	0.0	9.788703e-01	6.767214e-04	0.0	9.730929e-01	7.509120e-04	0.0	9.671082e-01	7.685508e-04	0.0	9.609124e-01	7.637283e-04	0.0	9.545008e-01	6.938762e-04	0.0	9.478692e-01	6.082468e-04	0.0	9.410147e-01	4.265751e-04	0.0	9.339316e-01	2.388441e-04	0.0	9.266196e-01	-5.825506e-05	0.0	9.190726e-01	-3.895536e-04	0.0	9.112908e-01	-8.096535e-04	0.0	9.032747e-01	-1.380263e-03	0.0	8.950140e-01	-1.968286e-03	0.0	8.865360e-01	-2.893814e-03	0.0	8.778144e-01	-3.894536e-03	0.0	8.688748e-01	-5.139864e-03	0.0	8.597329e-01	-6.747130e-03	0.0	8.503431e-01	-8.402912e-03	0.0	8.408183e-01	-1.065619e-02	0.0	8.310478e-01	-1.296758e-02	0.0	8.210416e-01	-1.537464e-02	0.0	8.107965e-01	-1.785654e-02	0.0	8.002635e-01	-2.017885e-02	0.0	7.894252e-01	-2.224724e-02	0.0	7.783348e-01	-2.425937e-02	0.0	7.668863e-01	-2.547068e-02	0.0	7.552067e-01	-2.670642e-02	0.0	7.432725e-01	-2.762485e-02	0.0	7.311066e-01	-2.842314e-02	0.0	7.187342e-01	-2.931799e-02	0.0	7.061778e-01	-3.049722e-02	0.0	6.934247e-01	-3.169493e-02	0.0	6.805893e-01	-3.368141e-02	0.0	6.676215e-01	-3.601926e-02	0.0	6.545216e-01	-3.853842e-02	0.0	6.414779e-01	-4.203062e-02	0.0	6.282929e-01	-4.556062e-02	0.0	6.149833e-01	-4.914304e-02	0.0	6.015605e-01	-5.277224e-02	0.0	5.880331e-01	-5.642971e-02	0.0	5.741716e-01	-5.904373e-02	0.0	5.602189e-01	-6.162088e-02	0.0	5.461028e-01	-6.330813e-02	0.0	5.318032e-01	-6.378502e-02	0.0	5.174663e-01	-6.426317e-02	0.0	5.031348e-01	-6.330864e-02	0.0	4.887974e-01	-6.227135e-02	0.0	4.744807e-01	-6.107797e-02	0.0	4.602016e-01	-5.970526e-02	0.0	4.459598e-01	-5.833613e-02	0.0	4.317170e-01	-5.774835e-02	0.0	4.175395e-01	-5.718213e-02	0.0	4.034434e-01	-5.718812e-02	0.0	3.894424e-01	-5.777068e-02	0.0	3.755501e-01	-5.835504e-02	0.0	3.618217e-01	-5.958489e-02	0.0	3.482269e-01	-6.080279e-02	0.0	3.347841e-01	-6.207699e-02	0.0	3.215047e-01	-6.340321e-02	0.0	3.083931e-01	-6.471266e-02	0.0	2.954330e-01	-6.570165e-02	0.0	2.826607e-01	-6.667423e-02	0.0	2.700722e-01	-6.739610e-02	0.0	2.576748e-01	-6.784656e-02	0.0	2.454908e-01	-6.828927e-02	0.0	2.335214e-01	-6.811218e-02	0.0	2.217785e-01	-6.790653e-02	0.0	2.102852e-01	-6.737274e-02	0.0	1.990524e-01	-6.639576e-02	0.0	1.880599e-01	-6.543969e-02	0.0	1.773935e-01	-6.383672e-02	0.0	1.669833e-01	-6.217860e-02	0.0	1.568580e-01	-6.036052e-02	0.0	1.470613e-01	-5.816243e-02	0.0	1.375111e-01	-5.601962e-02	0.0	1.282997e-01	-5.356744e-02	0.0	1.193649e-01	-5.105223e-02	0.0	1.106898e-01	-4.855001e-02	0.0	1.023499e-01	-4.580910e-02	0.0	9.424702e-02	-4.314610e-02	0.0	8.642558e-02	-4.042659e-02	0.0	7.886833e-02	-3.769324e-02	0.0	7.154211e-02	-3.503439e-02	0.0	6.447061e-02	-3.237702e-02	0.0	5.762019e-02	-2.980273e-02	0.0	5.097292e-02	-2.734937e-02	0.0	4.453545e-02	-2.498799e-02	0.0	3.830753e-02	-2.270761e-02	0.0	3.228584e-02	-2.050485e-02	0.0	2.652298e-02	-1.823020e-02	0.0	2.099593e-02	-1.594048e-02	0.0	1.581132e-02	-1.338995e-02	0.0	1.097912e-02	-1.062371e-02	0.0	6.492905e-03	-7.666939e-03	0.0	2.612703e-03	-4.224568e-03	0.0	8.198803e-01	3.871696e-02	0.0	8.273878e-01	3.543460e-02	0.0	8.285923e-01	4.360966e-02	0.0	8.583866e+01	2.684256e+01	0.0	8.189414e+01	2.026964e+01	0.0	8.852756e+01	1.735927e+01	0.0	7.572067e+01	-1.366829e+01	0.0	7.626472e+01	-2.543328e+01	0.0	8.714167e+01	-1.814885e+01	0.0	8.621355e+01	-5.284462e+00	0.0	4.157721e+01	1.908802e+01	0.0	3.523808e+01	2.887833e+01	0.0	3.122419e+01	2.044632e+01	0.0	8.063578e+01	3.589370e+01	0.0	6.786642e+01	3.526799e+01	0.0	7.455332e+01	2.464062e+01	0.0	6.897905e+01	-3.577596e+01	0.0	7.561839e+01	-4.409699e+01	0.0	8.153626e+01	-3.628141e+01	0.0	8.719264e+01	-2.824180e+01	0.0	5.602779e+01	3.255566e+01	0.0	5.843540e+01	4.209867e+01	0.0	4.813181e+01	3.917455e+01	0.0	5.476686e+01	-5.407880e+01	0.0	6.181200e+01	-6.146435e+01	0.0	6.537560e+01	-5.515398e+01	0.0	6.922598e+01	5.984202e+01	0.0	7.327758e+01	5.148401e+01	0.0	6.010652e+01	6.526271e+01	0.0	4.281969e+01	-6.294494e+01	0.0	4.455082e+01	-7.417995e+01	0.0	5.446840e+01	-6.956913e+01	0.0	6.622835e+01	-4.699489e+01	0.0	4.835110e+01	7.194559e+01	0.0	2.663255e+01	6.970902e+01	0.0	2.918620e+01	6.079402e+01	0.0	3.553988e+01	7.072262e+01	0.0	3.053481e+01	8.633168e+01	0.0	3.964361e+01	8.074991e+01	0.0	3.631841e+01	-7.104589e+01	0.0	2.524726e+01	-7.453388e+01	0.0	3.814129e+01	-8.068528e+01	0.0	6.601036e-01	4.002435e+01	0.0	8.136390e+00	4.896997e+01	0.0	-1.513548e+00	5.367932e+01	0.0	9.371057e+00	7.947626e+01	0.0	1.943931e+01	7.494987e+01	0.0	1.682197e+01	8.325521e+01	0.0	1.625189e+01	3.944705e+01	0.0	4.430331e+00	2.559831e+00	0.0	3.108196e+00	3.198060e+00	0.0	3.086040e+00	2.052926e+00	0.0	1.739979e+00	1.445313e+00	0.0	2.224139e+00	1.023698e+00	0.0	2.349239e+00	1.604196e+00	0.0	1.099460e+00	5.949939e-01	0.0	1.392126e+00	6.571961e-01	0.0	1.149311e+00	8.968417e-01	0.0	1.248934e+00	6.824228e-02	0.0	1.381945e+00	7.635981e-02	0.0	1.316993e+00	1.741407e-01	0.0	1.063098e+00	6.975785e-02	0.0	1.045521e+00	4.154890e-02	0.0	1.075590e+00	3.672070e-02	0.0	1.021123e+00	1.271290e-02	0.0	1.014850e+00	5.974953e-03	0.0	1.021846e+00	3.759693e-03	0.0	9.887863e-01	2.195506e-02	0.0	9.965376e-01	2.087610e-02	0.0	9.922146e-01	2.978108e-02	0.0	1.011304e+00	5.149976e-02	0.0	9.995131e-01	4.042629e-02	0.0	1.010891e+00	3.668071e-02	0.0	9.893260e-01	5.185104e-03	0.0	9.871870e-01	8.003573e-03	0.0	9.826924e-01	6.874990e-03	0.0	9.791134e-01	8.031281e-03	0.0	9.831455e-01	1.108501e-02	0.0	9.76669
[...]
POINT_DATA 1842

SCALARS Density double 1
LOOKUP_TABLE default
1.291631e+00	1.291690e+00	1.292049e+00	1.292189e+00	1.292133e+00	1.292080e+00	1.292053e+00	1.292013e+00	1.291962e+00	1.291917e+00	1.291880e+00	1.291866e+00	1.291874e+00	1.291917e+00	1.291989e+00	1.292058e+00	1.292121e+00	1.292168e+00	1.292206e+00	1.292233e+00	1.292253e+00	1.292268e+00	1.292279e+00	1.292289e+00	1.292296e+00	1.292305e+00	1.292314e+00	1.292325e+00	1.292338e+00	1.292355e+00	1.292378e+00	1.292407e+00	1.292443e+00	1.292490e+00	1.292543e+00	1.292609e+00	1.292668e+00	1.292716e+00	1.292723e+00	1.292701e+00	1.292657e+00	1.292598e+00	1.292544e+00	1.292482e+00	1.292423e+00	1.292383e+00	1.292390e+00	1.292310e+00	1.291978e+00	1.544469e+00	1.238932e+00	1.203546e+00	1.060070e+00	1.000732e+00	9.475790e-01	9.540990e-01	9.467902e-01	9.378202e-01	9.000181e-01	8.423562e-01	7.478158e-01	6.755851e-01	6.655634e-01	8.311813e-01	1.163753e+00	1.249775e+00	1.275410e+00	1.287018e+00	1.289121e+00	1.278196e+00	1.271715e+00	1.252208e+00	1.234554e+00	1.216714e+00	1.189820e+00	1.164202e+00	1.136825e+00	1.098559e+00	1.060927e+00	1.028843e+00	9.673498e-01	9.164644e-01	8.661549e-01	7.971167e-01	7.637737e-01	6.887623e-01	6.231329e-01	6.048690e-01	5.807629e-01	5.753731e-01	6.757991e-01	9.918671e-01	1.169448e+00	1.189279e+00	1.179979e+00	1.185749e+00	1.171941e+00	1.132636e+00	1.104840e+00	1.065672e+00	9.992583e-01	9.431188e-01	8.852273e-01	8.057128e-01	7.692418e-01	7.127012e-01	6.580385e-01	6.324457e-01	6.292036e-01	7.141146e-01	9.538491e-01	1.068641e+00	1.093067e+00	1.109386e+00	1.125693e+00	1.140794e+00	1.152645e+00	1.161539e+00	1.171982e+00	1.176833e+00	1.183731e+00	1.187257e+00	1.186148e+00	1.188501e+00	1.187522e+00	1.187140e+00	1.187087e+00	1.186171e+00	1.188481e+00	1.191022e+00	1.193239e+00	1.198083e+00	1.200998e+00	1.205245e+00	1.209562e+00	1.213085e+00	1.217362e+00	1.221045e+00	1.224737e+00	1.228272e+00	1.231713e+00	1.235402e+00	1.238853e+00	1.242414e+00	1.246193e+00	1.249717e+00	1.258504e+00	1.237140e+00	1.265155e+00	1.418010e+00	1.378261e+00	1.382079e+00	1.387497e+00	1.389351e+00	1.391517e+00	1.393622e+00	1.396443e+00	1.398111e+00	1.400478e+00	1.402972e+00	1.404169e+00	1.409242e+00	1.408540e+00	1.415200e+00	1.417101e+00	1.414567e+00	1.419257e+00	1.410796e+00	1.410781e+00	1.402307e+00	1.378638e+00	1.362451e+00	1.335121e+00	1.305900e+00	1.286165e+00	1.254361e+00	1.248797e+00	1.263266e+00	1.271815e+00	1.297271e+00	1.320565e+00	1.332983e+00	1.354378e+00	1.364187e+00	1.353211e+00	1.362249e+00	1.349253e+00	1.312647e+00	1.286436e+00	1.254760e+00	1.190367e+00	1.040949e+00	8.650122e-01	8.109835e-01	8.828294e-01	9.407088e-01	1.024779e+00	1.129933e+00	1.176327e+00	1.227589e+00	1.285226e+00	1.310595e+00	1.324120e+00	1.344853e+00	1.335599e+00	1.334351e+00	1.324872e+00	1.297673e+00	1.281261e+00	1.257102e+00	1.224418e+00	1.198778e+00	1.174055e+00	1.143015e+00	1.122172e+00	1.079423e+00	1.050806e+00	1.032070e+00	1.010222e+00	1.023304e+00	1.027488e+00	1.054603e+00	1.099030e+00	1.115868e+00	1.151101e+00	1.177441e+00	1.201260e+00	1.240112e+00	1.258426e+00	1.285891e+00	1.315455e+00	1.335072e+00	1.361939e+00	1.382242e+00	1.401987e+00	1.423622e+00	1.439967e+00	1.453874e+00	1.467134e+00	1.475421e+00	1.487177e+00	1.499613e+00	1.515653e+00	1.543546e+00	1.575387e+00	1.594651e+00	1.688044e+00	1.195660e+00	1.193347e+00	1.201713e+00	1.292103e+00	1.292000e+00	1.291946e+00	1.292165e+00	1.292323e+00	1.292202e+00	1.291896e+00	1.292005e+00	1.291949e+00	1.291993e+00	1.292121e+00	1.292115e+00	1.292092e+00	1.292389e+00	1.292386e+00	1.292354e+00	1.292323e+00	1.292044e+00	1.292015e+00	1.291976e+00	1.292506e+00	1.292501e+00	1.292459e+00	1.292047e+00	1.292062e+00	1.292004e+00	1.292612e+00	1.292616e+00	1.292552e+00	1.292424e+00	1.291947e+00	1.291804e+00	1.291795e+00	1.291869e+00	1.291871e+00	1.291903e+00	1.292673e+00	1.292735e+00	1.292664e+00	1.291305e+00	1.291478e+00	1.291541e+00	1.291780e+00	1.291778e+00	1.291810e+00	1.291463e+00	1.292131e+00	1.286012e+00	1.290155e+00	1.283421e+00	1.290959e+00	1.287710e+00	1.278081e+00	1.288121e+00	1.271400e+00	1.275029e+00	1.276729e+00	1.304827e+00	1.297168e+00	1.283804e+00	1.267976e+00	1.251674e+00	1.271638e+00	1.266753e+00	1.263417e+00	1.267309e+00	1.269451e+00	1.284161e+00	1.276980e+00	1.277892e+00	1.253575e+00	1.256027e+00	1.250623e+00	1.248759e+00	1.253228e+00	1.249805e+00	1.254849e+00	1.172053e+00	1.153641e+00	1.153294e+00	9.291583e-01	9.791896e-01	1.017813e+00	1.024966e+00	1.058664e+00	1.174396e+00	1.177898e+00	1.172145e+00	1.185606e+00	8.228286e-01	8.939240e-01	8.625959e-01	8.882984e-01	8.398962e-01	8.168852e-01	7.848570e-01	1.069819e+00	1.201573e+00	1.012070e+00	1.165670e+00	1.192859e+00	1.089487e+00	1.226295e+00	1.251251e+00	1.253629e+00	1.405737e+00	1.408617e+00	1.402366e+00	1.122979e+00	1.206876e+00	1.097956e+00	1.136517e+00	1.023069e+00	9.360568e-01	9.529299e-01	8.778345e-01	1.083351e+00	9.562091e-01	1.273868e+00	1.252622e+00	1.271734e+00	1.335393e+00	1.322000e+00	1.339304e+00	1.333063e+00	1.348235e+00	1.080731e+00	1.216678e+00	1.140546e+00	1.192074e+00	1.347284e+00	1.133007e+00	1.132555e+00	1.071700e+00	1.353531e+00	1.353004e+00	1.325228e+00	1.335310e+00	1.336404e+00	9.591462e-01	1.299031e+00	1.305108e+00	1.289479e+00	1.261647e+00	1.276320e+00	1.254894e+00	1.238943e+00	1.263184e+00	1.309134e+00	1.320765e+00	1.316224e+00	1.394006e+00	1.395990e+00	1.394144e+00	1.394374e+00	1.397285e+00	1.393829e+00	1.395735e+00	1.214446e+00	1.213975e+00	1.317369e+00	1.148166e+00	1.167454e+00	1.147394e+00	1.127177e+00	1.091157e+00	1.077608e+00	1.062626e+00	1.328283e+00	1.265086e+00	1.276341e+00	1.255046e+00	1.382623e+00	1.382570e+00	1.371276e+00	1.249696e+00	1.284564e+00	1.275423e+00	1.125273e+00	1.111891e+00	1.090627e+00	1.300570e+00	1.296151e+00	1.227832e+00	1.233025e+00	1.218088e+00	1.193275e+00	1.192484e+00	1.199618e+00	1.048504e+00	1.043144e+00	1.070402e+00	1.052869e+00	1.407287e+00	1.310041e+00	1.302903e+00	1.293843e+00	1.272406e+00	1.294392e+00	1.531357e+00	1.558465e+00	1.551044e+00	1.581574e+00	1.606988e+00	1.600574e+00	1.308794e+00	1.304402e+00	1.305150e+00	1.326441e+00	1.318928e+00	1.339645e+00	1.358061e+00	1.350701e+00	1.300209e+00	1.296244e+00	1.288701e+00	1.379755e+00	1.388437e+00	1.393120e+00	1.367369e+00	1.368732e+00	1.358663e+00	1.376922e+00	1.365408e+00	1.311573e+00	1.316947e+00	1.317592e+00	1.302121e+00	1.288942e+00	1.296104e+00	1.243102e+00	1.266889e+00	1.248587e+00	1.225773e+00	1.195030e+00	1.196821e+00	1.222735e+00	1.215061e+00	1.286706e+00	1.187553e+00	1.157083e+00	1.201688e+00	1.139733e+00	1.273042e+00	1.266882e+00	1.241456e+00	1.206435e+00	1.224499e+00	1.077325e+00	1.063551e+00	1.113313e+00	1.095120e+00	9.236976e-01	1.097707e+00	1.121585e+00	1.068729e+00	9.372638e-01	8.750116e-01	9.942616e-01	1.144382e+00	1.070822e+00	6.309028e-01	1.407025e+00	1.402828e+00	1.398764e+00	1.411434e+00	1.412592e+00	1.392438e+00	1.397886e+00	1.397871e+00	1.407019e+00	1.409558e+00	1.402680e+00	1.405053e+00	1.402276e+00	1.311726e+00	1.311161e+00	1.325710e+00	1.307858e+00	1.279673e+00	1.307041e+00	1.339508e+00	1.351554e+00	1.263390e+00	1.221135e+00	1.300814e+00	1.303589e+00	1.300654e+00	1.259977e+00	1.235332e+00	1.292742e+00	1.292705e+00	1.292913e+00	1.309066e+00	1.199499e+00	1.237488e+00	1.223550e+00	1.226360e+00	1.248505e+00	1.236910e+00	1.206944e+00	1.292733e+00	1.292776e+00	1.292694e+00	1.282568e+00	1.265584e+00	1.334699e+00	1.356817e+00	1.326216e+00	1.334030e+00	1.214080e+00	1.177435e+00	1.187498e+00	1.292639e+00	1.292542e+00	1.292579e+00	1.435591e+00	1.420317e+00	1.294486e+00	1.293837e+00	1.293849e+00	1.262069e+00	1.116564e+00	1.142923e+00	1.448452e+00	1.426099e+00	1.465988e+00	1.459045e+00	1.292783e+00	1.292751e+00	1.486321e+00	1.496997e+00	1.497712e+00	1.484211e+00	1.497776e+00	1.478023e+00	1.376539e+00	1.390291e+00	1.408985e+00	1.539140e+00	1.558738e+00	1.509088e+00	1.487438e+00	1.504213e+00	1.294459e+00	1.296200e+00	1.295479e+00	1.292724e+00	1.292656e+00	1.293280e+00	1.293122e+00	1.293080e+00	1.317679e+00	1.312585e+00	1.292456e+00	1.292521e+00	1.292513e+00	1.294860e+00	1.297398e+00	1.295852e+00	1.292943e+00	1.292652e+00	1.292792e+00	1.292356e+00	1.292241e+00	1.292218e+00	1.292448e+00	1.292426e+00	1.292399e+00	1.292318e+00	1.292343e+00	1.292310e+00	1.292381e+00	1.292387e+00	1.292352e+00	1.292343e+00	1.292331e+00	1.292308e+00	1.292299e+00	1.292274e+00	1.292285e+00	1.292283e+00	1.292234e+00	1.292189e+00	1.292218e+00	9.841221e-01	1.019000e+00	9.827134e-01	1.020795e+00	1.292061e+00	1.291933e+00	1.291989e+00	1.291848e+00	1.292078e+00	1.291539e+00	1.292135e+00	1.292166e+00	1.292216e+00	1.292200e+00	1.292108e+00	8.928916e-01	9.443542e-01	8.617178e-01	7.893180e-01	7.737317e-01	1.050872e+00	9.588272e-01	1.005522e+00	1.289603e+00	1.250011e+00	1.284864e+00	1.291979e+00	1.292033e+00	7.862020e-01	7.026856e-01	7.659326e-01	1.078739e+00	9.794956e-01	6.196933e-01	5.841416e-01	1.291983e+00	1.291921e+00	1.284323e+00	1.280914e+00	1.285009e+00	1.275980e+00	1.265439e+00	1.276843e+00	7.956344e-01	7.381810e-01	6.532229e-01	1.141152e+00	1.291893e+00	6.298134e-01	8.558210e-01	9.281669e-01	9.629640e-01	9.116356e-01	1.055652e+00	1.291845e+00	1.095960e+00	1.133617e+00	1.221974e+00	1.216736e+00	1.211422e+00	1.131174e+00	1.252830e+00	1.240375e+00	1.241921e+00	1.232567e+00	1.233872e+00	1.238983e+00	1.227818e+00	1.233969e+00	1.231509e+00	1.227069e+00	1.221575e+00	1.223024e+00	1.139489e+00	1.112223e+00	1.184240e+00	1.173896e+00	1.175678e+00	1.266163e+00	1.266224e+00	1.253789e+00	1.216759e+00	1.207486e+00	1.206493e+00	1.224348e+00	1.238199e+00	1.241013e+00	1.182033e+00	1.185557e+00	1.193892e+00	1.150891e+00	1.144269e+00	1.206858e+00	1.197832e+00	1.203961e+00	1.207655e+00	1.199016e+00	1.201101e+00	1.194310e+00	1.191675e+00	1.216081e+00	1.218988e+00	1.225701e+00	1.206519e+00	1.206444e+00	1.195773e+00	1.291867e+00	1.290891e+00	1.292298e+00	1.019577e+00	1.391542e+00	1.391333e+00	1.292736e+00	1.292608e+00	1.292539e+00	1.292368e+00	1.293042e+00	1.292791e+00	1.292902e+00	1.292182e+00	1.292391e+00	1.292520e+00	1.292619e+00	1.292663e+00	1.293363e+00	1.291844e+00	1.291828e+00	1.291816e+00	1.291737e+00	1.291926e+00	1.292462e+00	1.292415e+00	1.291992e+00	1.292079e+00	1.292197e+00	1.293129e+00	1.292777e+00	1.293492e+00	1.292978e+00	1.292913e+00	1.206416e+00	1.278733e+00	1.272804e+00	1.292214e+00	1.292257e+00	1.292918e+00	1.293387e+00	1.293458e+00	1.294383e+00	1.294084e+00	1.291754e+00	1.291433e+00	1.291515e+00	1.291876e+00	1.292285e+00	1.289950e+00	1.290675e+00	1.290040e+00	1.288806e+00	1.289380e+00	1.293445e+00	1.292857e+00	1.292593e+00	1.292471e+00	1.292388e+00	1.292733e+00	1.292809e+00	1.292276e+00	1.292210e+00	1.292125e+00	1.292262e+00	1.291829e+00	1.291829e+00	1.291793e+00	1.291724e+00	1.292783e+00	1.292895e+00	1.292827e+00	1.292890e+00	1.292096e+00	1.292049e+00	1.292013e+00	1.291771e+00	1.291788e+00	1.291894e+00	1.291965e+00	1.291859e+00	1.291915e+00	1.291874e+00	1.292284e+00	1.292362e+00	1.292512e+00	1.292628e+00	1.292576e+00	1.292710e+00	1.292544e+00	1.292476e+00	1.292486e+00	1.292373e+00	1.292126e+00	1.292811e+00	1.293068e+00	1.249635e+00	1.247839e+00	1.293655e+00	1.229525e+00	1.138648e+00	1.156508e+00	1.290843e+00	1.291404e+00	1.291923e+00	1.293411e+00	1.292795e+00	1.291739e+00	1.291925e+00	1.291905e+00	1.292426e+00	1.291641e+00	1.291806e+00	1.291748e+00	1.294090e+00	1.293662e+00	1.293997e+00	1.293338e+00	1.293612e+00	1.293259e+00	1.292911e+00	1.290712e+00	1.290995e+00	1.294035e+00	1.294479e+00	1.290717e+00	1.292051e+00	1.292133e+00	1.292323e+00	1.292595e+00	1.292416e+00	1.291656e+00	1.291829e+00	1.292282e+00	1.292104e+00	1.292390e+00	1.292334e+00	1.292370e+00	1.292416e+00	1.292459e+00	1.292341e+00	1.292146e+00	1.292061e+00	1.292829e+00	1.292799e+00	1.291710e+00	1.291624e+00	1.292626e+00	1.292719e+00	1.291833e+00	1.291937e+00	1.291999e+00	1.292388e+00	1.292442e+00	1.292507e+00	1.292255e+00	1.292695e+00	1.292836e+00	1.292858e+00	1.292953e+00	1.291675e+00	1.291984e+00	1.292583e+00	1.291865e+00	1.291624e+00	1.292527e+00	1.292647e+00	1.292657e+00	1.291202e+00	1.291466e+00	1.291851e+00	1.291854e+00	1.292544e+00	1.291660e+00	1.292001e+00	1.292292e+00	1.292325e+00	1.292430e+00	1.292479e+00	1.292049e+00	1.292008e+00	1.292961e+00	1.291525e+00	1.291838e+00	1.291929e+00	1.291952e+00	1.292610e+00	1.291942e+00	1.293004e+00	1.291893e+00	1.291724e+00	1.292395e+00	1.292464e+00	1.292525e+00	1.292264e+00	1.289386e+00	1.287662e+00	1.292558e+00	1.292333e+00	1.461430e+00	1.449883e+00	1.291489e+00	1.292385e+00	1.292083e+00	1.291873e+00	1.292718e+00	1.293373e+00	1.290569e+00	1.287636e+00	1.295385e+00	1.293430e+00	1.289499e+00	1.295314e+00	1.294646e+00	1.296246e+00	1.294330e+00	1.300835e+00	1.298741e+00	1.291911e+00	1.291349e+00	1.291589e+00	1.291067e+00	1.291672e+00	1.290173e+00	1.292741e+00	1.288572e+00	1.291872e+00	1.291406e+00	9.980478e-01	9.433908e-01	1.295033e+00	1.296256e+00	1.291514e+00	1.288804e+00	1.293676e+00	1.289337e+00	1.287562e+00	1.290256e+00	1.294222e+00	1.362499e+00	1.363635e+00	1.354818e+00	1.293643e+00	1.292829e+00	1.289328e+00	1.284345e+00	1.289145e+00	1.290869e+00	1.293581e+00	1.295541e+00	1.298024e+00	1.310754e+00	1.304208e+00	1.303191e+00	1.287105e+00	1.288460e+00	1.291110e+00	1.297916e+00	1.297147e+00	1.295240e+00	1.291195e+00	6.103215e-01	1.394113e+00	1.384040e+00	1.375840e+00	1.297034e+00	1.299342e+00	1.298838e+00	1.297866e+00	1.295911e+00	1.279230e+00	1.295909e+00	1.297463e+00	1.082352e+00	1.296194e+00	1.300996e+00	1.299274e+00	1.349667e+00	1.339051e+00	1.279958e+00	1.247316e+00	1.244012e+00	1.286289e+00	1.265752e+00	1.235788e+00	1.291367e+00	1.289917e+00	1.291286e+00	1.294063e+00	1.288833e+00	1.292601e+00	1.300306e+00	1.299030e+00	1.408014e+00	1.396903e+00	1.432420e+00	1.300873e+00	1.301768e+00	1.299932e+00	1.301804e+00	1.353926e+00	1.306040e+00	1.293307e+00	1.298880e+00	1.304307e+00	1.287355e+00	1.297724e+00	1.298992e+00	1.285950e+00	1.275127e+00	1.299746e+00	1.269609e+00	1.239962e+00	1.228181e+00	1.203967e+00	1.259847e+00	1.281592e+00	9.142703e-01	1.262881e+00	1.436389e+00	1.403885e+00	1.425006e+00	1.303632e+00	1.281447e+00	1.287968e+00	1.282808e+00	1.305889e+00	1.321738e+00	1.321244e+00	1.298969e+00	1.276931e+00	9.752726e-01	1.274869e+00	1.280732e+00	1.312781e+00	1.301250e+00	1.293927e+00	1.288904e+00	1.095760e+00	1.519441e+00	1.476136e+00	1.523166e+00	1.301646e+00	1.305167e+00	1.237537e+00	1.299552e+00	1.302002e+00	1.297929e+00	1.313412e+00	1.299818e+00	1.306423e+00	1.315414e+00	1.320637e+00	1.302466e+00	1.312016e+00	1.302522e+00	1.297663e+00	1.300479e+00	1.283332e+00	1.308352e+00	1.279484e+00	1.317203e+00	1.307187e+00	1.311963e+00	1.305884e+00	1.306783e+00	1.319541e+00	1.320449e+00	1.361712e+00	1.343097e+00	1.350960e+00	1.292585e+00	1.287660e+00	1.292268e+00	1.257457e+00	1.278217e+00	1.255367e+00	1.246170e+00	1.326734e+00	1.334204e+00	1.183173e+00	1.201863e+00	1.237155e+00	1.304233e+00	1.284277e+00	1.292639e+00	1.279580e+00	1.294640e+00	1.314440e+00	1.337771e+00	1.149573e+00	1.131265e+00	1.084557e+00	1.134261e+00	1.176807e+00	1.213438e+00	1.302005e+00	1.306609e+00	1.304296e+00	1.327605e+00	1.322311e+00	1.327718e+00	1.238656e+00	1.003018e+00	1.011508e+00	1.314671e+00	1.355287e+00	1.389657e+00	1.180427e+00	1.139561e+00	1.119369e+00	1.450908e+00	1.330022e+00	1.352453e+00	1.250251e+00	1.166395e+00	1.260155e+00	1.317769e+00	1.318048e+00	1.280084e+00	1.296755e+00	1.328158e+00	1.301369e+00	1.278147e+00	1.283012e+00	1.209883e+00	1.193985e+00	1.201323e+00	1.193760e+00	1.294660e+00	1.267867e+00	1.341960e+00	1.342384e+00	1.329685e+00	7.680732e-01	8.242882e-01	1.243524e+00	1.249842e+00	1.304984e+00	1.341590e+00	1.105193e+00	1.067115e+00	1.115430e+00	1.321997e+00	1.340602e+00	1.235680e+00	1.249291e+00	1.287991e+00	1.346671e+00	1.283992e+00	1.302836e+00	1.313497e+00	1.330512e+00	1.335947e+00	1.249486e+00	1.301306e+00	1.289774e+00	1.323510e+00	1.337262e+00	1.438231e+00	1.428132e+00	1.301884e+00	1.308758e+00	1.287848e+00	1.300280e+00	1.334508e+00	1.009564e+00	1.320993e+00	1.408577e+00	1.368140e+00	1.315167e+00	1.358368e+00	1.350124e+00	1.276708e+00	1.287767e+00	1.254933e+00	1.071849e+00	1.149265e+00	8.150200e-01	1.271864e+00	1.167895e+00	1.238886e+00	1.248943e+00	1.189798e+00	1.356103e+00	1.287728e+00	1.248718e+00	1.297186e+00	1.216252e+00	1.095368e+00	1.252736e+00	1.349274e+00	1.345218e+00	1.343259e+00	1.292916e+00	1.214195e+00	1.216408e+00	1.187161e+00	9.969283e-01	9.535102e-01	1.219285e+00	1.241933e+00	1.246127e+00	1.174315e+00	1.219595e+00	9.264483e-01	9.941944e-01	1.033223e+00	1.064084e+00	1.075805e+00	1.362067e+00	1.343623e+00	1.377374e+00	1.520546e+00	1.255213e+00	1.267492e+00	1.249184e+00	1.080314e+00	1.404053e+00	1.370581e+00	1.384507e+00	1.378792e+00	1.370215e+00	1.253872e+00	1.072645e+00	1.081646e+00	1.170986e+00	1.057205e+00	1.292433e+00	1.340985e+00	1.293787e+00	1.349904e+00	1.299847e+00	1.347360e+00	1.354240e+00	1.072400e+00	1.358576e+00	1.336539e+00	1.392274e+00	1.074167e+00	6.523228e-01	6.716695e-01	1.317116e+00	1.316106e+00	1.303756e+00	1.343752e+00	1.332717e+00	1.240292e+00	1.326593e+00	1.170777e+00	1.167235e+00	1.182007e+00	1.188443e+00	1.194454e+00	1.204053e+00	1.235021e+00	1.159527e+00	1.165855e+00	1.119589e+00	1.217258e+00	1.298579e+00	1.289598e+00	1.292308e+00	1.239076e+00	1.254135e+00	1.236448e+00	1.257658e+00	1.133283e+00	1.252371e+00	1.175571e+00	1.382274e+00	1.200608e+00	1.144695e+00	1.251554e+00	1.336097e+00	1.152071e+00	1.330327e+00	1.359784e+00	1.339687e+00	1.261278e+00	1.347680e+00	1.307440e+00	1.503360e+00	1.539226e+00	1.506606e+00	1.051707e+00	1.102840e+00	1.065470e+00	1.165488e+00	8.686714e-01	8.552992e-01	8.853543e-01	1.244326e+00	1.151867e+00	1.178760e+00	1.133416e+00	1.180096e+00	1.131166e+00	8.895841e-01	1.169518e+00	1.261027e+00	1.296717e+00	1.249482e+00	1.244369e+00	1.271841e+00	1.277946e+00	1.326671e+00	1.408953e+00	1.411890e+00	1.380030e+00	1.372677e+00	1.200846e+00	1.123762e+00	8.791364e-01	1.083659e+00	9.424369e-01	1.197060e+00	6.633899e-01	1.213908e+00	1.210747e+00	1.282150e+00	1.028733e+00	1.409590e+00	1.269665e+00	1.264790e+00	1.285323e+00	1.226488e+00	1.200440e+00	1.309549e+00	1.005140e+00	1.074044e+00	8.530552e-01	1.154140e+00	1.193607e+00	1.200267e+00	1.285731e+00	6.955252e-01	7.595027e-01	7.707297e-01	6.991009e-01	9.729438e-01	1.441537e+00	1.371012e+00	1.377859e+00	1.370579e+00	1.338788e+00	1.372659e+00	1.369011e+00	1.323235e+00	9.654160e-01	9.871840e-01	1.208911e+00	1.265400e+00	1.136107e+00	1.194180e+00	1.281815e+00	1.290538e+00	1.267269e+00	1.280922e+00	1.307394e+00	1.119558e+00	1.075749e+00	1.475495e+00	1.446421e+00	1.358095e+00	1.340619e+00	9.726560e-01	8.274885e-01	9.091269e-01	8.811718e-01	1.074479e+00	1.403054e+00	1.372925e+00	1.410780e+00	1.411212e+00	1.315905e+00	1.331057e+00	1.326989e+00	1.363651e+00	1.254734e+00	1.267622e+00	1.271959e+00	1.182619e+00	1.208810e+00	1.097601e+00	1.170517e+00	1.146190e+00	1.193468e+00	1.435165e+00	1.099050e+00	8.591840e-01	1.159716e+00	1.222258e+00	1.172433e+00	1.163615e+00	1.170786e+00	1.186208e+00	1.344531e+00	1.323602e+00	1.306082e+00	7.989288e-01	6.009819e-01	7.765696e-01	9.411605e-01	8.680356e-01	1.208696e+00	1.165718e+00	9.463078e-01	1.247783e+00	1.236664e+00	1.243215e+00	1.231724e+00	1.248557e+00	1.169179e+00	1.261575e+00	1.267662e+00	1.493811e+00	1.463445e+00	1.535117e+00	1.489034e+00	1.271546e+00	1.260741e+00	1.375160e+00	1.367560e+00	1.106048e+00	1.074027e+00	1.201751e+00	1.204019e+00	1.387068e+00	1.376331e+00	1.222752e+00	1.185977e+00	1.206517e+00	1.174008e+00	1.352986e+00	1.377910e+00	1.321911e+00	1.341404e+00	1.342557e+00	1.142220e+00	1.393114e+00	1.405056e+00	1.408231e+00	1.281389e+00	1.284158e+00	1.321808e+00	1.334495e+00	1.461703e+00	1.213504e+00	1.215991e+00	1.251643e+00	9.093772e-01	9.646947e-01	1.007125e+00	7.219771e-01	8.472782e-01	1.109139e+00	1.210768e+00	1.143119e+00	1.252927e+00	1.275252e+00	1.314278e+00	1.281191e+00	1.304092e+00	1.293034e+00	1.082734e+00	1.026256e+00	1.059530e+00	1.096330e+00	1.169598e+00	1.146036e+00	1.127085e+00	1.269179e+00	1.293587e+00	1.277238e+00	1.294480e+00	1.248084e+00	1.178452e+00	7.933563e-01	1.393810e+00	1.398149e+00	1.388486e+00	1.186976e+00	1.166488e+00	1.267124e+00	1.386885e+00	1.386580e+00	1.385728e+00	1.179524e+00	1.307245e+00	1.401179e+00	1.145596e+00	1.105874