# vtk DataFile Version 3.0
vtk output
ASCII
DATASET UNSTRUCTURED_GRID
POINTS 198 double
0.000000e+00	0.000000e+00	0.0	3.009476e-03	3.992876e-03	0.0	6.131539e-03	8.135129e-03	0.0	1.049921e-02	1.125283e-02	0.0	1.508743e-02	1.442149e-02	0.0	2.037618e-02	1.674720e-02	0.0	2.586407e-02	1.913170e-02	0.0	3.172818e-02	2.113162e-02	0.0	3.781177e-02	2.315181e-02	0.0	4.420971e-02	2.489796e-02	0.0	5.086584e-02	2.651688e-02	0.0	5.784604e-02	2.773187e-02	0.0	6.511231e-02	2.845653e-02	0.0	7.265942e-02	2.877314e-02	0.0	8.042970e-02	2.823885e-02	0.0	8.844022e-02	2.760364e-02	0.0	9.669530e-02	2.695098e-02	0.0	1.052116e-01	2.680602e-02	0.0	1.139870e-01	2.701640e-02	0.0	1.229308e-01	2.810991e-02	0.0	1.320881e-01	2.961984e-02	0.0	1.414131e-01	3.156197e-02	0.0	1.508990e-01	3.396881e-02	0.0	1.606281e-01	3.644309e-02	0.0	1.705206e-01	3.927623e-02	0.0	1.806532e-01	4.217814e-02	0.0	1.910296e-01	4.512790e-02	0.0	2.016498e-01	4.811482e-02	0.0	2.125022e-01	5.116705e-02	0.0	2.236651e-01	5.396881e-02	0.0	2.350786e-01	5.673017e-02	0.0	2.467394e-01	5.941257e-02	0.0	2.587628e-01	6.142065e-02	0.0	2.709968e-01	6.346391e-02	0.0	2.835234e-01	6.474736e-02	0.0	2.963078e-01	6.550510e-02	0.0	3.092803e-01	6.615534e-02	0.0	3.224291e-01	6.533632e-02	0.0	3.357462e-01	6.450682e-02	0.0	3.491845e-01	6.326260e-02	0.0	3.627404e-01	6.169204e-02	0.0	3.764318e-01	6.013101e-02	0.0	3.902870e-01	5.899188e-02	0.0	4.042501e-01	5.784389e-02	0.0	4.183306e-01	5.757709e-02	0.0	4.325098e-01	5.800825e-02	0.0	4.467457e-01	5.856058e-02	0.0	4.609183e-01	6.049866e-02	0.0	4.751279e-01	6.244179e-02	0.0	4.893338e-01	6.456436e-02	0.0	5.035281e-01	6.681585e-02	0.0	5.177234e-01	6.900040e-02	0.0	5.320025e-01	7.034078e-02	0.0	5.462444e-01	7.167766e-02	0.0	5.604669e-01	7.198522e-02	0.0	5.746463e-01	7.155773e-02	0.0	5.887342e-01	7.099991e-02	0.0	6.026269e-01	6.918912e-02	0.0	6.164122e-01	6.739233e-02	0.0	6.300022e-01	6.514456e-02	0.0	6.434059e-01	6.258117e-02	0.0	6.566646e-01	6.003792e-02	0.0	6.697136e-01	5.725317e-02	0.0	6.825978e-01	5.450360e-02	0.0	6.953063e-01	5.178816e-02	0.0	7.078297e-01	4.910819e-02	0.0	7.201598e-01	4.646956e-02	0.0	7.323119e-01	4.398577e-02	0.0	7.442581e-01	4.156033e-02	0.0	7.560075e-01	3.928012e-02	0.0	7.675690e-01	3.722479e-02	0.0	7.789019e-01	3.521011e-02	0.0	7.900569e-01	3.358279e-02	0.0	8.009767e-01	3.201170e-02	0.0	8.116742e-01	3.062500e-02	0.0	8.221367e-01	2.934912e-02	0.0	8.323523e-01	2.811302e-02	0.0	8.423201e-01	2.692000e-02	0.0	8.520337e-01	2.572967e-02	0.0	8.614793e-01	2.443651e-02	0.0	8.706745e-01	2.317763e-02	0.0	8.796012e-01	2.182516e-02	0.0	8.882753e-01	2.047909e-02	0.0	8.966970e-01	1.913573e-02	0.0	9.048629e-01	1.776100e-02	0.0	9.127871e-01	1.642698e-02	0.0	9.204632e-01	1.508146e-02	0.0	9.279016e-01	1.376629e-02	0.0	9.351050e-01	1.247837e-02	0.0	9.420751e-01	1.120684e-02	0.0	9.488202e-01	9.975877e-03	0.0	9.553385e-01	8.753510e-03	0.0	9.616403e-01	7.571748e-03	0.0	9.677256e-01	6.406919e-03	0.0	9.736026e-01	5.277787e-03	0.0	9.792727e-01	4.167295e-03	0.0	9.847432e-01	3.087789e-03	0.0	9.900177e-01	2.032279e-03	0.0	9.951006e-01	9.977448e-04	0.0	1.000000e+00	0.000000e+00	0.0	9.950063e-01	2.439228e-04	0.0	9.898228e-01	4.370430e-04	0.0	9.844456e-01	5.786951e-04	0.0	9.788703e-01	6.767214e-04	0.0	9.730929e-01	7.509120e-04	0.0	9.671082e-01	7.685508e-04	0.0	9.609124e-01	7.637283e-04	0.0	9.545008e-01	6.938762e-04	0.0	9.478692e-01	6.082468e-04	0.0	9.410147e-01	4.265751e-04	0.0	9.339316e-01	2.388441e-04	0.0	9.266196e-01	-5.825506e-05	0.0	9.190726e-01	-3.895536e-04	0.0	9.112908e-01	-8.096535e-04	0.0	9.032747e-01	-1.380263e-03	0.0	8.950140e-01	-1.968286e-03	0.0	8.865360e-01	-2.893814e-03	0.0	8.778144e-01	-3.894536e-03	0.0	8.688748e-01	-5.139864e-03	0.0	8.597329e-01	-6.747130e-03	0.0	8.503431e-01	-8.402912e-03	0.0	8.408183e-01	-1.065619e-02	0.0	8.310478e-01	-1.296758e-02	0.0	8.210416e-01	-1.537464e-02	0.0	8.107965e-01	-1.785654e-02	0.0	8.002635e-01	-2.017885e-02	0.0	7.894252e-01	-2.224724e-02	0.0	7.783348e-01	-2.425937e-02	0.0	7.668863e-01	-2.547068e-02	0.0	7.552067e-01	-2.670642e-02	0.0	7.432725e-01	-2.762485e-02	0.0	7.311066e-01	-2.842314e-02	0.0	7.187342e-01	-2.931799e-02	0.0	7.061778e-01	-3.049722e-02	0.0	6.934247e-01	-3.169493e-02	0.0	6.805893e-01	-3.368141e-02	0.0	6.676215e-01	-3.601926e-02	0.0	6.545216e-01	-3.853842e-02	0.0	6.414779e-01	-4.203062e-02	0.0	6.282929e-01	-4.556062e-02	0.0	6.149833e-01	-4.914304e-02	0.0	6.015605e-01	-5.277224e-02	0.0	5.880331e-01	-5.642971e-02	0.0	5.741716e-01	-5.904373e-02	0.0	5.602189e-01	-6.162088e-02	0.0	5.461028e-01	-6.330813e-02	0.0	5.318032e-01	-6.378502e-02	0.0	5.174663e-01	-6.426317e-02	0.0	5.031348e-01	-6.330864e-02	0.0	4.887974e-01	-6.227135e-02	0.0	4.744807e-01	-6.107797e-02	0.0	4.602016e-01	-5.970526e-02	0.0	4.459598e-01	-5.833613e-02	0.0	4.317170e-01	-5.774835e-02	0.0	4.175395e-01	-5.718213e-02	0.0	4.034434e-01	-5.718812e-02	0.0	3.894424e-01	-5.777068e-02	0.0	3.755501e-01	-5.835504e-02	0.0	3.618217e-01	-5.958489e-02	0.0	3.482269e-01	-6.080279e-02	0.0	3.347841e-01	-6.207699e-02	0.0	3.215047e-01	-6.340321e-02	0.0	3.083931e-01	-6.471266e-02	0.0	2.954330e-01	-6.570165e-02	0.0	2.826607e-01	-6.667423e-02	0.0	2.700722e-01	-6.739610e-02	0.0	2.576748e-01	-6.784656e-02	0.0	2.454908e-01	-6.828927e-02	0.0	2.335214e-01	-6.811218e-02	0.0	2.217785e-01	-6.790653e-02	0.0	2.102852e-01	-6.737274e-02	0.0	1.990524e-01	-6.639576e-02	0.0	1.880599e-01	-6.543969e-02	0.0	1.773935e-01	-6.383672e-02	0.0	1.669833e-01	-6.217860e-02	0.0	1.568580e-01	-6.036052e-02	0.0	1.470613e-01	-5.816243e-02	0.0	1.375111e-01	-5.601962e-02	0.0	1.282997e-01	-5.356744e-02	0.0	1.193649e-01	-5.105223e-02	0.0	1.106898e-01	-4.855001e-02	0.0	1.023499e-01	-4.580910e-02	0.0	9.424702e-02	-4.314610e-02	0.0	8.642558e-02	-4.042659e-02	0.0	7.886833e-02	-3.769324e-02	0.0	7.154211e-02	-3.503439e-02	0.0	6.447061e-02	-3.237702e-02	0.0	5.762019e-02	-2.980273e-02	0.0	5.097292e-02	-2.734937e-02	0.0	4.453545e-02	-2.498799e-02	0.0	3.830753e-02	-2.270761e-02	0.0	3.228584e-02	-2.050485e-02	0.0	2.652298e-02	-1.823020e-02	0.0	2.099593e-02	-1.594048e-02	0.0	1.581132e-02	-1.338995e-02	0.0	1.097912e-02	-1.062371e-02	0.0	6.492905e-03	-7.666939e-03	0.0	2.612703e-03	-4.224568e-03	0.0	
CELLS 198	594
2	112	113	2	113	114	2	114	115	2	115	116	2	116	117	2	117	118	2	118	119	2	119	120	2	120	121	2	121	122	2	122	123	2	123	124	2	124	125	2	125	126	2	126	127	2	127	128	2	128	129	2	129	130	2	130	131	2	131	132	2	132	133	2	133	134	2	134	135	2	135	136	2	136	137	2	137	138	2	138	139	2	139	140	2	140	141	2	141	142	2	142	143	2	143	144	2	144	145	2	145	146	2	146	147	2	147	148	2	148	149	2	149	150	2	150	151	2	151	152	2	152	153	2	153	154	2	154	155	2	155	156	2	156	157	2	157	158	2	158	159	2	159	160	2	160	161	2	161	162	2	162	163	2	163	164	2	164	165	2	165	166	2	166	167	2	167	168	2	168	169	2	169	170	2	170	171	2	171	172	2	172	173	2	173	174	2	174	175	2	175	176	2	176	177	2	177	178	2	178	179	2	179	180	2	180	181	2	181	182	2	182	183	2	183	184	2	184	185	2	0	1	2	1	2	2	2	3	2	3	4	2	4	5	2	5	6	2	6	7	2	7	8	2	8	9	2	9	10	2	10	11	2	11	12	2	12	13	2	13	14	2	14	15	2	15	16	2	16	17	2	17	18	2	18	19	2	19	20	2	20	21	2	21	22	2	22	23	2	23	24	2	24	25	2	25	26	2	26	27	2	27	28	2	28	29	2	29	30	2	30	31	2	31	32	2	32	33	2	33	34	2	34	35	2	35	36	2	36	37	2	37	38	2	38	39	2	39	40	2	40	41	2	41	42	2	42	43	2	43	44	2	44	45	2	45	46	2	46	47	2	47	48	2	48	49	2	185	186	2	186	187	2	187	188	2	188	189	2	189	190	2	190	191	2	191	192	2	192	193	2	193	194	2	194	195	2	195	196	2	196	197	2	197	0	2	49	50	2	50	51	2	51	52	2	52	53	2	53	54	2	54	55	2	55	56	2	56	57	2	57	58	2	58	59	2	59	60	2	60	61	2	61	62	2	62	63	2	63	64	2	64	65	2	65	66	2	66	67	2	67	68	2	68	69	2	69	70	2	70	71	2	71	72	2	72	73	2	73	74	2	74	75	2	75	76	2	76	77	2	77	78	2	78	79	2	79	80	2	80	81	2	81	82	2	82	83	2	83	84	2	84	85	2	85	86	2	86	87	2	87	88	2	88	89	2	89	90	2	90	91	2	91	92	2	92	93	2	93	94	2	94	95	2	95	96	2	96	97	2	97	98	2	98	99	2	99	100	2	100	101	2	101	102	2	102	103	2	103	104	2	104	105	2	105	106	2	106	107	2	107	108	2	108	109	2	109	110	2	110	111	2	111	112	
CELL_TYPES 198
3	3	3	3	3	3	3	3	3	3	3	3	3	3	3	3	3	3	3	3	3	3	3	3	3	3	3	3	3	3	3	3	3	3	3	3	3	3	3	3	3	3	3	3	3	3	3	3	3	3	3	3	3	3	3	3	3	3	3	3	3	3	3	3	3	3	3	3	3	3	3	3	3	3	3	3	3	3	3	3	3	3	3	3	3	3	3	3	3	3	3	3	3	3	3	3	3	3	3	3	3	3	3	3	3	3	3	3	3	3	3	3	3	3	3	3	3	3	3	3	3	3	3	3	3	3	3	3	3	3	3	3	3	3	3	3	3	3	3	3	3	3	3	3	3	3	3	3	3	3	3	3	3	3	3	3	3	3	3	3	3	3	3	3	3	3	3	3	3	3	3	3	3	3	3	3	3	3	3	3	3	3	3	3	3	3	3	3	3	3	3	3	3	3	3	3	3	3	
POINT_DATA 198

SCALARS Density double 1
LOOKUP_TABLE default
1.544469e+00	1.238932e+00	1.203546e+00	1.060070e+00	1.000732e+00	9.475790e-01	9.540990e-01	9.467902e-01	9.378202e-01	9.000181e-01	8.423562e-01	7.478158e-01	6.755851e-01	6.655634e-01	8.311813e-01	1.163753e+00	1.249775e+00	1.275410e+00	1.287018e+00	1.289121e+00	1.278196e+00	1.271715e+00	1.252208e+00	1.234554e+00	1.216714e+00	1.189820e+00	1.164202e+00	1.136825e+00	1.098559e+00	1.060927e+00	1.028843e+00	9.673498e-01	9.164644e-01	8.661549e-01	7.971167e-01	7.637737e-01	6.887623e-01	6.231329e-01	6.048690e-01	5.807629e-01	5.753731e-01	6.757991e-01	9.918671e-01	1.169448e+00	1.189279e+00	1.179979e+00	1.185749e+00	1.171941e+00	1.132636e+00	1.104840e+00	1.065672e+00	9.992583e-01	9.431188e-01	8.852273e-01	8.057128e-01	7.692418e-01	7.127012e-01	6.580385e-01	6.324457e-01	6.292036e-01	7.141146e-01	9.538491e-01	1.068641e+00	1.093067e+00	1.109386e+00	1.125693e+00	1.140794e+00	1.152645e+00	1.161539e+00	1.171982e+00	1.176833e+00	1.183731e+00	1.187257e+00	1.186148e+00	1.188501e+00	1.187522e+00	1.187140e+00	1.187087e+00	1.186171e+00	1.188481e+00	1.191022e+00	1.193239e+00	1.198083e+00	1.200998e+00	1.205245e+00	1.209562e+00	1.213085e+00	1.217362e+00	1.221045e+00	1.224737e+00	1.228272e+00	1.231713e+00	1.235402e+00	1.238853e+00	1.242414e+00	1.246193e+00	1.249717e+00	1.258504e+00	1.237140e+00	1.265155e+00	1.418010e+00	1.378261e+00	1.382079e+00	1.387497e+00	1.389351e+00	1.391517e+00	1.393622e+00	1.396443e+00	1.398111e+00	1.400478e+00	1.402972e+00	1.404169e+00	1.409242e+00	1.408540e+00	1.415200e+00	1.417101e+00	1.414567e+00	1.419257e+00	1.410796e+00	1.410781e+00	1.402307e+00	1.378638e+00	1.362451e+00	1.335121e+00	1.305900e+00	1.286165e+00	1.254361e+00	1.248797e+00	1.263266e+00	1.271815e+00	1.297271e+00	1.320565e+00	1.332983e+00	1.354378e+00	1.364187e+00	1.353211e+00	1.362249e+00	1.349253e+00	1.312647e+00	1.286436e+00	1.254760e+00	1.190367e+00	1.040949e+00	8.650122e-01	8.109835e-01	8.828294e-01	9.407088e-01	1.024779e+00	1.129933e+00	1.176327e+00	1.227589e+00	1.285226e+00	1.310595e+00	1.324120e+00	1.344853e+00	1.335599e+00	1.334351e+00	1.324872e+00	1.297673e+00	1.281261e+00	1.257102e+00	1.224418e+00	1.198778e+00	1.174055e+00	1.143015e+00	1.122172e+00	1.079423e+00	1.050806e+00	1.032070e+00	1.010222e+00	1.023304e+00	1.027488e+00	1.054603e+00	1.099030e+00	1.115868e+00	1.151101e+00	1.177441e+00	1.201260e+00	1.240112e+00	1.258426e+00	1.285891e+00	1.315455e+00	1.335072e+00	1.361939e+00	1.382242e+00	1.401987e+00	1.423622e+00	1.439967e+00	1.453874e+00	1.467134e+00	1.475421e+00	1.487177e+00	1.499613e+00	1.515653e+00	1.543546e+00	1.575387e+00	1.594651e+00	1.688044e+00	
VECTORS Momentum double
2.304415e+01	1.850699e+02	0.0	1.601793e+02	2.022777e+02	0.0	2.080990e+02	2.014308e+02	0.0	2.457531e+02	1.716117e+02	0.0	2.734910e+02	1.522853e+02	0.0	2.840122e+02	1.236634e+02	0.0	2.918360e+02	1.126139e+02	0.0	2.964655e+02	9.973227e+01	0.0	3.017696e+02	9.124707e+01	0.0	3.035319e+02	7.876129e+01	0.0	3.039030e+02	6.442921e+01	0.0	2.930448e+02	4.111984e+01	0.0	2.796349e+02	2.167318e+01	0.0	2.640961e+02	6.444720e-01	0.0	2.457444e+02	-1.991701e+01	0.0	2.265119e+02	-1.733586e+01	0.0	2.059746e+02	-9.076780e+00	0.0	1.929553e+02	9.792926e-01	0.0	1.859979e+02	1.377306e+01	0.0	1.855477e+02	2.685395e+01	0.0	1.889807e+02	3.538526e+01	0.0	1.948835e+02	4.533870e+01	0.0	2.034927e+02	5.167315e+01	0.0	2.125369e+02	5.725488e+01	0.0	2.236374e+02	6.399924e+01	0.0	2.353807e+02	6.701107e+01	0.0	2.449323e+02	6.910441e+01	0.0	2.545330e+02	7.163859e+01	0.0	2.639357e+02	7.022600e+01	0.0	2.710188e+02	6.671786e+01	0.0	2.802434e+02	6.592186e+01	0.0	2.857040e+02	5.635578e+01	0.0	2.882367e+02	4.788573e+01	0.0	2.912762e+02	3.947316e+01	0.0	2.855529e+02	2.318282e+01	0.0	2.844773e+02	1.593931e+01	0.0	2.743686e+02	-9.920516e-01	0.0	2.588747e+02	-1.638972e+01	0.0	2.570284e+02	-2.060827e+01	0.0	2.507315e+02	-2.634506e+01	0.0	2.429741e+02	-2.755464e+01	0.0	2.524153e+02	-2.629025e+01	0.0	2.568718e+02	-1.945371e+01	0.0	2.369481e+02	-1.195173e+01	0.0	2.300910e+02	1.751952e+00	0.0	2.237486e+02	7.845598e+00	0.0	2.227557e+02	1.967707e+01	0.0	2.307027e+02	3.197856e+01	0.0	2.390965e+02	3.415973e+01	0.0	2.480101e+02	3.800375e+01	0.0	2.598058e+02	4.096289e+01	0.0	2.682332e+02	3.358723e+01	0.0	2.738403e+02	2.584978e+01	0.0	2.790626e+02	1.625335e+01	0.0	2.742909e+02	-1.695614e+00	0.0	2.733285e+02	-9.520683e+00	0.0	2.673427e+02	-2.194619e+01	0.0	2.565893e+02	-3.352915e+01	0.0	2.532005e+02	-3.711123e+01	0.0	2.498651e+02	-4.366907e+01	0.0	2.367942e+02	-4.620922e+01	0.0	2.338780e+02	-4.529364e+01	0.0	2.234853e+02	-4.722055e+01	0.0	2.168936e+02	-4.610683e+01	0.0	2.101075e+02	-4.477953e+01	0.0	2.046298e+02	-4.380009e+01	0.0	1.996507e+02	-4.172169e+01	0.0	1.949928e+02	-3.964232e+01	0.0	1.894694e+02	-3.759862e+01	0.0	1.860615e+02	-3.453344e+01	0.0	1.826866e+02	-3.250668e+01	0.0	1.806464e+02	-2.925872e+01	0.0	1.800313e+02	-2.602303e+01	0.0	1.792362e+02	-2.459274e+01	0.0	1.799076e+02	-2.271024e+01	0.0	1.809108e+02	-2.198377e+01	0.0	1.813565e+02	-2.186277e+01	0.0	1.820888e+02	-2.205945e+01	0.0	1.817323e+02	-2.360526e+01	0.0	1.804595e+02	-2.469617e+01	0.0	1.789322e+02	-2.575746e+01	0.0	1.765219e+02	-2.710012e+01	0.0	1.741425e+02	-2.738436e+01	0.0	1.715387e+02	-2.811737e+01	0.0	1.688253e+02	-2.844138e+01	0.0	1.662824e+02	-2.854306e+01	0.0	1.635286e+02	-2.880694e+01	0.0	1.608575e+02	-2.861493e+01	0.0	1.581804e+02	-2.855824e+01	0.0	1.552760e+02	-2.831870e+01	0.0	1.524394e+02	-2.818218e+01	0.0	1.493871e+02	-2.801467e+01	0.0	1.463098e+02	-2.770970e+01	0.0	1.431987e+02	-2.744470e+01	0.0	1.396114e+02	-2.704542e+01	0.0	1.360884e+02	-2.672697e+01	0.0	1.319690e+02	-2.621292e+01	0.0	1.284755e+02	-2.564371e+01	0.0	1.171573e+02	-2.726945e+01	0.0	1.713414e+02	4.944162e+00	0.0	2.843659e+02	-1.545617e+01	0.0	2.643198e+02	-8.111977e+00	0.0	2.623893e+02	-5.594216e+00	0.0	2.628968e+02	-4.012983e+00	0.0	2.617259e+02	-2.067310e+00	0.0	2.605209e+02	-2.764961e-01	0.0	2.598179e+02	1.516016e+00	0.0	2.588113e+02	3.069970e+00	0.0	2.578426e+02	5.100393e+00	0.0	2.570148e+02	6.776378e+00	0.0	2.559643e+02	8.591886e+00	0.0	2.549181e+02	1.080607e+01	0.0	2.535060e+02	1.238288e+01	0.0	2.517628e+02	1.582689e+01	0.0	2.508100e+02	1.774958e+01	0.0	2.485684e+02	2.243361e+01	0.0	2.482340e+02	2.781424e+01	0.0	2.483377e+02	3.154689e+01	0.0	2.477882e+02	3.920503e+01	0.0	2.500674e+02	4.390862e+01	0.0	2.513504e+02	5.198966e+01	0.0	2.567717e+02	6.092948e+01	0.0	2.654636e+02	6.323045e+01	0.0	2.721003e+02	6.569538e+01	0.0	2.807567e+02	6.498683e+01	0.0	2.887163e+02	5.926869e+01	0.0	2.941547e+02	5.490145e+01	0.0	3.007813e+02	4.275586e+01	0.0	3.005755e+02	3.179666e+01	0.0	2.969048e+02	2.711799e+01	0.0	2.936265e+02	2.076289e+01	0.0	2.865736e+02	1.976937e+01	0.0	2.805673e+02	2.342510e+01	0.0	2.762203e+02	2.579930e+01	0.0	2.697135e+02	3.389868e+01	0.0	2.673904e+02	4.546270e+01	0.0	2.700498e+02	5.027592e+01	0.0	2.681371e+02	6.162962e+01	0.0	2.735463e+02	7.326357e+01	0.0	2.848501e+02	7.618779e+01	0.0	2.920144e+02	7.852633e+01	0.0	2.987810e+02	8.005042e+01	0.0	3.080281e+02	7.010359e+01	0.0	3.045793e+02	5.678704e+01	0.0	3.036915e+02	4.458957e+01	0.0	3.242032e+02	2.451176e+01	0.0	3.263851e+02	1.085921e+01	0.0	3.323107e+02	-6.457261e+00	0.0	3.331187e+02	-2.388081e+01	0.0	3.252992e+02	-2.534425e+01	0.0	3.202474e+02	-2.922998e+01	0.0	3.136447e+02	-3.064934e+01	0.0	3.056296e+02	-2.085594e+01	0.0	3.022020e+02	-1.212853e+01	0.0	3.002753e+02	-6.194901e+00	0.0	2.979819e+02	6.415926e+00	0.0	3.013002e+02	1.252299e+01	0.0	3.026125e+02	1.992556e+01	0.0	3.057263e+02	2.757877e+01	0.0	3.119767e+02	2.873421e+01	0.0	3.151804e+02	3.088627e+01	0.0	3.193703e+02	3.201400e+01	0.0	3.243231e+02	2.847164e+01	0.0	3.273997e+02	2.499119e+01	0.0	3.292033e+02	2.208409e+01	0.0	3.326257e+02	1.563260e+01	0.0	3.325651e+02	1.240039e+01	0.0	3.343002e+02	3.655311e+00	0.0	3.340348e+02	-5.022973e+00	0.0	3.317059e+02	-1.018103e+01	0.0	3.339548e+02	-2.223271e+01	0.0	3.313538e+02	-2.853067e+01	0.0	3.321442e+02	-3.964276e+01	0.0	3.312412e+02	-5.173336e+01	0.0	3.268559e+02	-5.549383e+01	0.0	3.253228e+02	-6.591238e+01	0.0	3.194709e+02	-7.158530e+01	0.0	3.147944e+02	-7.697697e+01	0.0	3.094099e+02	-8.466654e+01	0.0	3.025467e+02	-8.604530e+01	0.0	2.968814e+02	-9.160983e+01	0.0	2.891644e+02	-9.510187e+01	0.0	2.814601e+02	-9.496631e+01	0.0	2.738413e+02	-9.718889e+01	0.0	2.656333e+02	-9.621086e+01	0.0	2.580603e+02	-9.531054e+01	0.0	2.500061e+02	-9.402220e+01	0.0	2.426247e+02	-9.032847e+01	0.0	2.361547e+02	-8.688506e+01	0.0	2.298495e+02	-8.424735e+01	0.0	2.234013e+02	-8.164606e+01	0.0	2.158347e+02	-8.196121e+01	0.0	2.052582e+02	-8.303852e+01	0.0	1.894415e+02	-8.550984e+01	0.0	1.642539e+02	-8.691775e+01	0.0	1.281867e+02	-7.796120e+01	0.0	8.198847e+01	-5.992141e+01	0.0	3.465480e+00	-3.298787e+00	0.0	
SCALARS Energy double 1
LOOKUP_TABLE default
3.381520e+05	2.763521e+05	2.709581e+05	2.419952e+05	2.310077e+05	2.199590e+05	2.215577e+05	2.200841e+05	2.185165e+05	2.107870e+05	1.990410e+05	1.788999e+05	1.631423e+05	1.593052e+05	1.906982e+05	2.587075e+05	2.758861e+05	2.807568e+05	2.829648e+05	2.834549e+05	2.813220e+05	2.802825e+05	2.765836e+05	2.733328e+05	2.702107e+05	2.652167e+05	2.604173e+05	2.553190e+05	2.479345e+05	2.405633e+05	2.346241e+05	2.223038e+05	2.120531e+05	2.020852e+05	1.875731e+05	1.808168e+05	1.649793e+05	1.505585e+05	1.468755e+05	1.415794e+05	1.396223e+05	1.601688e+05	2.246550e+05	2.604834e+05	2.642678e+05	2.619597e+05	2.631672e+05	2.607606e+05	2.529819e+05	2.477364e+05	2.403760e+05	2.271473e+05	2.159854e+05	2.045813e+05	1.880677e+05	1.807094e+05	1.689797e+05	1.572399e+05	1.519451e+05	1.510575e+05	1.665076e+05	2.153519e+05	2.387212e+05	2.434694e+05	2.465251e+05	2.496760e+05	2.526030e+05	2.548706e+05	2.564813e+05	2.585222e+05	2.593886e+05	2.607465e+05	2.614509e+05	2.611709e+05	2.616916e+05	2.615222e+05	2.614594e+05	2.614812e+05	2.612786e+05	2.617226e+05	2.622057e+05	2.625852e+05	2.635226e+05	2.640435e+05	2.648446e+05	2.656685e+05	2.663174e+05	2.671306e+05	2.678196e+05	2.685033e+05	2.691591e+05	2.697896e+05	2.704744e+05	2.711102e+05	2.717562e+05	2.724552e+05	2.730840e+05	2.748683e+05	2.699579e+05	2.776803e+05	3.156815e+05	3.061391e+05	3.068384e+05	3.080114e+05	3.083396e+05	3.087333e+05	3.091421e+05	3.096871e+05	3.099911e+05	3.104516e+05	3.109284e+05	3.111322e+05	3.121395e+05	3.119110e+05	3.132833e+05	3.135929e+05	3.130652e+05	3.140890e+05	3.123192e+05	3.124704e+05	3.108167e+05	3.061891e+05	3.032704e+05	2.979191e+05	2.922833e+05	2.885675e+05	2.822193e+05	2.813734e+05	2.842839e+05	2.857910e+05	2.908690e+05	2.953052e+05	2.975668e+05	3.018295e+05	3.035769e+05	3.012245e+05	3.033312e+05	3.006146e+05	2.933894e+05	2.886326e+05	2.825187e+05	2.696263e+05	2.394368e+05	2.034405e+05	1.924671e+05	2.085565e+05	2.201981e+05	2.376345e+05	2.591399e+05	2.680282e+05	2.782503e+05	2.897540e+05	2.944459e+05	2.970185e+05	3.012278e+05	2.991409e+05	2.991044e+05	2.972298e+05	2.917877e+05	2.887992e+05	2.840134e+05	2.775481e+05	2.725994e+05	2.677253e+05	2.614810e+05	2.574710e+05	2.487423e+05	2.430738e+05	2.392635e+05	2.346516e+05	2.375529e+05	2.382005e+05	2.438590e+05	2.529464e+05	2.560597e+05	2.633024e+05	2.683455e+05	2.729955e+05	2.807857e+05	2.841347e+05	2.895834e+05	2.953335e+05	2.989666e+05	3.042077e+05	3.080034e+05	3.117474e+05	3.158869e+05	3.189218e+05	3.215099e+05	3.239992e+05	3.254387e+05	3.276306e+05	3.298776e+05	3.327574e+05	3.379306e+05	3.436809e+05	3.467411e+05	3.660725e+05	
SCALARS Pressure double 1
LOOKUP_TABLE default
1.307567e+05	9.979388e+04	9.444451e+04	7.984728e+04	7.281978e+04	6.773081e+04	6.811156e+04	6.736625e+04	6.621045e+04	6.246304e+04	5.670256e+04	4.814079e+04	4.196882e+04	4.276324e+04	6.165264e+04	9.461375e+04	1.035520e+05	1.064642e+05	1.077804e+05	1.079288e+05	1.067447e+05	1.058167e+05	1.035932e+05	1.014841e+05	9.918988e+04	9.601885e+04	9.304045e+04	8.982681e+04	8.559351e+04	8.153961e+04	7.773793e+04	7.138851e+04	6.619018e+04	6.088384e+04	5.443554e+04	5.106876e+04	4.413246e+04	3.862779e+04	3.676583e+04	3.474318e+04	3.506391e+04	4.500722e+04	7.648086e+04	9.456706e+04	9.680343e+04	9.628798e+04	9.683217e+04	9.504670e+04	9.089220e+04	8.769864e+04	8.316759e+04	7.623262e+04	7.035023e+04	6.417826e+04	5.655084e+04	5.283628e+04	4.740003e+04	4.254388e+04	4.006866e+04	3.997189e+04	5.030124e+04	7.424152e+04	8.572365e+04	8.839129e+04	9.029005e+04	9.208998e+04	9.374782e+04	9.507818e+04	9.616788e+04	9.729760e+04	9.790396e+04	9.864035e+04	9.900642e+04	9.894958e+04	9.914319e+04	9.901540e+04	9.896216e+04	9.892431e+04	9.884885e+04	9.910620e+04	9.939453e+04	9.968821e+04	1.002215e+05	1.005856e+05	1.010739e+05	1.015608e+05	1.019813e+05	1.024667e+05	1.028960e+05	1.033331e+05	1.037505e+05	1.041647e+05	1.045999e+05	1.050120e+05	1.054471e+05	1.058952e+05	1.063365e+05	1.072197e+05	1.056440e+05	1.064272e+05	1.148336e+05	1.123079e+05	1.127678e+05	1.132397e+05	1.134744e+05	1.137383e+05	1.139687e+05	1.142801e+05	1.144824e+05	1.147407e+05	1.150210e+05	1.151805e+05	1.157135e+05	1.157288e+05	1.163788e+05	1.166461e+05	1.164045e+05	1.168047e+05	1.160056e+05	1.158497e+05	1.149308e+05	1.123723e+05	1.103766e+05	1.074302e+05	1.041945e+05	1.019186e+05	9.861094e+04	9.776755e+04	9.924999e+04	1.003383e+05	1.029892e+05	1.056251e+05	1.071336e+05	1.093667e+05	1.105973e+05	1.096172e+05	1.102546e+05	1.090255e+05	1.051369e+05	1.019360e+05	9.843279e+04	9.177513e+04	7.660071e+04	5.918154e+04	5.375165e+04	5.947495e+04	6.540588e+04	7.349360e+04	8.391346e+04	8.911056e+04	9.445199e+04	1.004471e+05	1.034575e+05	1.049910e+05	1.070765e+05	1.063538e+05	1.060114e+05	1.050081e+05	1.021923e+05	1.001980e+05	9.764921e+04	9.419128e+04	9.135574e+04	8.872386e+04	8.554407e+04	8.322597e+04	7.897607e+04	7.595633e+04	7.407807e+04	7.205702e+04	7.312735e+04	7.375018e+04	7.632398e+04	8.072470e+04	8.272363e+04	8.617763e+04	8.913157e+04	9.171305e+04	9.571852e+04	9.792973e+04	1.008195e+05	1.040454e+05	1.063681e+05	1.092839e+05	1.116524e+05	1.139029e+05	1.163320e+05	1.182594e+05	1.198937e+05	1.214302e+05	1.225066e+05	1.238840e+05	1.254125e+05	1.274024e+05	1.306976e+05	1.346147e+05	1.374030e+05	1.464263e+05	
SCALARS Temperature double 1
LOOKUP_TABLE default
2.949274e+02	2.805995e+02	2.733659e+02	2.623953e+02	2.534905e+02	2.490010e+02	2.486897e+02	2.478671e+02	2.459446e+02	2.417699e+02	2.344970e+02	2.242585e+02	2.164099e+02	2.238265e+02	2.583963e+02	2.832199e+02	2.886402e+02	2.907930e+02	2.917330e+02	2.916580e+02	2.909239e+02	2.898644e+02	2.881940e+02	2.863639e+02	2.839940e+02	2.811288e+02	2.784029e+02	2.752598e+02	2.714238e+02	2.677400e+02	2.632171e+02	2.570840e+02	2.515987e+02	2.448707e+02	2.378981e+02	2.329276e+02	2.232128e+02	2.159481e+02	2.117451e+02	2.084016e+02	2.122956e+02	2.320037e+02	2.686146e+02	2.817015e+02	2.835549e+02	2.842680e+02	2.844836e+02	2.825281e+02	2.795545e+02	2.765183e+02	2.718697e+02	2.657623e+02	2.598540e+02	2.525593e+02	2.445058e+02	2.392763e+02	2.316869e+02	2.252248e+02	2.207049e+02	2.213063e+02	2.453811e+02	2.711424e+02	2.794468e+02	2.817040e+02	2.835226e+02	2.849856e+02	2.862756e+02	2.873530e+02	2.884208e+02	2.892088e+02	2.898115e+02	2.902898e+02	2.905018e+02	2.906066e+02	2.905988e+02	2.904635e+02	2.904008e+02	2.903027e+02	2.903052e+02	2.904952e+02	2.907188e+02	2.910360e+02	2.914099e+02	2.917586e+02	2.921421e+02	2.925016e+02	2.928597e+02	2.932198e+02	2.935600e+02	2.939185e+02	2.942564e+02	2.946060e+02	2.949534e+02	2.952904e+02	2.956640e+02	2.960202e+02	2.964155e+02	2.967909e+02	2.974790e+02	2.930484e+02	2.821110e+02	2.838634e+02	2.842384e+02	2.843133e+02	2.845224e+02	2.847401e+02	2.848859e+02	2.850871e+02	2.852511e+02	2.854114e+02	2.856002e+02	2.857525e+02	2.860413e+02	2.862218e+02	2.864746e+02	2.867475e+02	2.866662e+02	2.867012e+02	2.864476e+02	2.860658e+02	2.855114e+02	2.839485e+02	2.822191e+02	2.803085e+02	2.779491e+02	2.760498e+02	2.738628e+02	2.727303e+02	2.736945e+02	2.748358e+02	2.765611e+02	2.786363e+02	2.799828e+02	2.813036e+02	2.824235e+02	2.821913e+02	2.819488e+02	2.814912e+02	2.790215e+02	2.760384e+02	2.732810e+02	2.685805e+02	2.563501e+02	2.383386e+02	2.308926e+02	2.346862e+02	2.422099e+02	2.498330e+02	2.587077e+02	2.638952e+02	2.680331e+02	2.722629e+02	2.749943e+02	2.762199e+02	2.773636e+02	2.774005e+02	2.767660e+02	2.761082e+02	2.743363e+02	2.724282e+02	2.706004e+02	2.679856e+02	2.654773e+02	2.632584e+02	2.607165e+02	2.583628e+02	2.548791e+02	2.518092e+02	2.500409e+02	2.484790e+02	2.489462e+02	2.500440e+02	2.521170e+02	2.558746e+02	2.582539e+02	2.608024e+02	2.637077e+02	2.659651e+02	2.688844e+02	2.710924e+02	2.731309e+02	2.755353e+02	2.775473e+02	2.795303e+02	2.813935e+02	2.830228e+02	2.846655e+02	2.860971e+02	2.872764e+02	2.883283e+02	2.892503e+02	2.901902e+02	2.913346e+02	2.928252e+02	2.949705e+02	2.976702e+02	3.001657e+02	3.021799e+02	
SCALARS Mach double 1
LOOKUP_TABLE default
3.507447e-01	6.201712e-01	7.260130e-01	8.707352e-01	9.800294e-01	1.033404e+00	1.037074e+00	1.046749e+00	1.069267e+00	1.117771e+00	1.201348e+00	1.318105e+00	1.407746e+00	1.323029e+00	9.204869e-01	5.786123e-01	4.843685e-01	4.425596e-01	4.232229e-01	4.247932e-01	4.399104e-01	4.609829e-01	4.926630e-01	5.255681e-01	5.659072e-01	6.119425e-01	6.535270e-01	6.993334e-01	7.527576e-01	8.020184e-01	8.603500e-01	9.365588e-01	1.002635e+00	1.081792e+00	1.162377e+00	1.219282e+00	1.330024e+00	1.413038e+00	1.461355e+00	1.500013e+00	1.455010e+00	1.229829e+00	7.904805e-01	6.029489e-01	5.731402e-01	5.613580e-01	5.577587e-01	5.897934e-01	6.361922e-01	6.812384e-01	7.466687e-01	8.277850e-01	9.024929e-01	9.911779e-01	1.086041e+00	1.146533e+00	1.233445e+00	1.307094e+00	1.358633e+00	1.351768e+00	1.075844e+00	7.565842e-01	6.378269e-01	6.029094e-01	5.736701e-01	5.493084e-01	5.271136e-01	5.079966e-01	4.884612e-01	4.736257e-01	4.620125e-01	4.526207e-01	4.484047e-01	4.463088e-01	4.464649e-01	4.491706e-01	4.504190e-01	4.523663e-01	4.523159e-01	4.485372e-01	4.440553e-01	4.376306e-01	4.299531e-01	4.226846e-01	4.145657e-01	4.068279e-01	3.989880e-01	3.909678e-01	3.832558e-01	3.749766e-01	3.670192e-01	3.586241e-01	3.500999e-01	3.416480e-01	3.320520e-01	3.226595e-01	3.119345e-01	3.014220e-01	2.812098e-01	3.948033e-01	5.964578e-01	5.680665e-01	5.618516e-01	5.606043e-01	5.571102e-01	5.534535e-01	5.509942e-01	5.475869e-01	5.447981e-01	5.420611e-01	5.388238e-01	5.362006e-01	5.311987e-01	5.280543e-01	5.236243e-01	5.188097e-01	5.202475e-01	5.196300e-01	5.240998e-01	5.307737e-01	5.403473e-01	5.666612e-01	5.947369e-01	6.246610e-01	6.602710e-01	6.880112e-01	7.190740e-01	7.348311e-01	7.214288e-01	7.053618e-01	6.806176e-01	6.500392e-01	6.296605e-01	6.092075e-01	5.914701e-01	5.951795e-01	5.990350e-01	6.062627e-01	6.442558e-01	6.881741e-01	7.271952e-01	7.909325e-01	9.454988e-01	1.157317e+00	1.242505e+00	1.199183e+00	1.112681e+00	1.023581e+00	9.166553e-01	8.517350e-01	7.981621e-01	7.412747e-01	7.031128e-01	6.855564e-01	6.689036e-01	6.683623e-01	6.776398e-01	6.871693e-01	7.124215e-01	7.389995e-01	7.639253e-01	7.987879e-01	8.314643e-01	8.598274e-01	8.917730e-01	9.208986e-01	9.633202e-01	1.000127e+00	1.021122e+00	1.039554e+00	1.034050e+00	1.021085e+00	9.964582e-01	9.512737e-01	9.222356e-01	8.907016e-01	8.541219e-01	8.251634e-01	7.869033e-01	7.572637e-01	7.292809e-01	6.953982e-01	6.662031e-01	6.365604e-01	6.077980e-01	5.818150e-01	5.547091e-01	5.302290e-01	5.093756e-01	4.901783e-01	4.728328e-01	4.545900e-01	4.315097e-01	3.997507e-01	3.496762e-01	2.753479e-01	1.833542e-01	8.133400e-03	
SCALARS Pressure_Coefficient double 1
LOOKUP_TABLE default