# vtk DataFile Version 3.0
vtk output
ASCII
DATASET UNSTRUCTURED_GRID
POINTS 1818 double
1.000000e+02	0.000000e+00	0.0	9.917900e+01	1.278772e+01	0.0	9.672949e+01	2.536546e+01	0.0	9.269168e+01	3.752670e+01	0.0	8.713187e+01	4.907176e+01	0.0	8.014136e+01	5.981105e+01	0.0	7.183494e+01	6.956826e+01	0.0	6.234898e+01	7.818315e+01	0.0	5.183926e+01	8.551428e+01	0.0	4.047833e+01	9.144126e+01	0.0	2.845276e+01	9.586679e+01	0.0	1.595999e+01	9.871818e+01	0.0	3.205158e+00	9.994862e+01	0.0	-9.602303e+00	9.953791e+01	0.0	-2.225209e+01	9.749279e+01	0.0	-3.453651e+01	9.384684e+01	0.0	-4.625383e+01	8.865993e+01	0.0	-5.721167e+01	8.201723e+01	0.0	-6.723009e+01	7.402780e+01	0.0	-7.614460e+01	6.482284e+01	0.0	-8.380881e+01	5.455349e+01	0.0	-9.009689e+01	4.338837e+01	0.0	-9.490557e+01	3.151082e+01	0.0	-9.815592e+01	1.911586e+01	0.0	-9.979454e+01	6.407022e+00	0.0	-9.979454e+01	-6.407022e+00	0.0	-9.815592e+01	-1.911586e+01	0.0	-9.490557e+01	-3.151082e+01	0.0	-9.009689e+01	-4.338837e+01	0.0	-8.380881e+01	-5.455349e+01	0.0	-7.614460e+01	-6.482284e+01	0.0	-6.723009e+01	-7.402780e+01	0.0	-5.721167e+01	-8.201723e+01	0.0	-4.625383e+01	-8.865993e+01	0.0	-3.453651e+01	-9.384684e+01	0.0	-2.225209e+01	-9.749279e+01	0.0	-9.602303e+00	-9.953791e+01	0.0	3.205158e+00	-9.994862e+01	0.0	1.595999e+01	-9.871818e+01	0.0	2.845276e+01	-9.586679e+01	0.0	4.047833e+01	-9.144126e+01	0.0	5.183926e+01	-8.551428e+01	0.0	6.234898e+01	-7.818315e+01	0.0	7.183494e+01	-6.956826e+01	0.0	8.014136e+01	-5.981105e+01	0.0	8.713187e+01	-4.907176e+01	0.0	9.269168e+01	-3.752670e+01	0.0	9.672949e+01	-2.536546e+01	0.0	9.917900e+01	-1.278772e+01	0.0	0.000000e+00	0.000000e+00	0.0	3.487158e-03	3.583257e-03	0.0	7.257034e-03	7.118267e-03	0.0	1.171096e-02	1.013334e-02	0.0	1.641907e-02	1.310432e-02	0.0	2.155915e-02	1.574034e-02	0.0	2.692999e-02	1.836871e-02	0.0	3.264565e-02	2.075485e-02	0.0	3.858205e-02	2.316879e-02	0.0	4.478591e-02	2.550475e-02	0.0	5.118466e-02	2.795810e-02	0.0	5.776966e-02	3.056254e-02	0.0	6.447431e-02	3.347431e-02	0.0	7.130395e-02	3.669015e-02	0.0	7.822596e-02	4.025445e-02	0.0	8.531108e-02	4.403287e-02	0.0	9.288153e-02	4.736603e-02	0.0	1.007488e-01	5.060642e-02	0.0	1.093351e-01	5.239170e-02	0.0	1.181972e-01	5.386846e-02	0.0	1.274632e-01	5.354260e-02	0.0	1.369799e-01	5.319428e-02	0.0	1.466500e-01	5.176067e-02	0.0	1.565691e-01	5.029016e-02	0.0	1.667512e-01	4.889128e-02	0.0	1.771896e-01	4.752710e-02	0.0	1.878819e-01	4.625439e-02	0.0	1.988977e-01	4.603879e-02	0.0	2.101539e-01	4.581849e-02	0.0	2.216089e-01	4.643486e-02	0.0	2.332659e-01	4.770570e-02	0.0	2.451456e-01	4.901511e-02	0.0	2.571565e-01	5.098774e-02	0.0	2.693773e-01	5.299485e-02	0.0	2.818145e-01	5.494675e-02	0.0	2.944622e-01	5.682598e-02	0.0	3.072958e-01	5.873282e-02	0.0	3.203980e-01	5.986048e-02	0.0	3.336754e-01	6.093400e-02	0.0	3.471262e-01	6.168721e-02	0.0	3.607466e-01	6.196684e-02	0.0	3.745005e-01	6.224922e-02	0.0	3.883761e-01	6.205813e-02	0.0	4.023596e-01	6.182092e-02	0.0	4.164350e-01	6.147897e-02	0.0	4.305872e-01	6.099612e-02	0.0	4.448058e-01	6.051100e-02	0.0	4.590697e-01	5.986069e-02	0.0	4.733704e-01	5.919874e-02	0.0	4.876855e-01	5.839713e-02	0.0	5.019989e-01	5.743222e-02	0.0	5.163048e-01	5.646781e-02	0.0	5.305531e-01	5.507917e-02	0.0	5.447634e-01	5.368246e-02	0.0	5.588981e-01	5.208079e-02	0.0	5.729406e-01	5.025648e-02	0.0	5.869032e-01	4.844256e-02	0.0	6.007646e-01	4.658288e-02	0.0	6.145188e-01	4.473539e-02	0.0	6.281737e-01	4.307577e-02	0.0	6.417222e-01	4.165043e-02	0.0	6.551260e-01	4.024031e-02	0.0	6.684281e-01	3.957652e-02	0.0	6.815679e-01	3.899267e-02	0.0	6.945343e-01	3.865843e-02	0.0	7.073208e-01	3.872133e-02	0.0	7.199104e-01	3.878326e-02	0.0	7.322939e-01	3.893522e-02	0.0	7.444646e-01	3.909936e-02	0.0	7.564144e-01	3.907710e-02	0.0	7.681363e-01	3.876525e-02	0.0	7.796266e-01	3.845470e-02	0.0	7.908268e-01	3.731142e-02	0.0	8.017877e-01	3.619256e-02	0.0	8.124444e-01	3.463406e-02	0.0	8.228343e-01	3.294004e-02	0.0	8.329532e-01	3.114374e-02	0.0	8.427989e-01	2.924329e-02	0.0	8.523989e-01	2.739746e-02	0.0	8.617564e-01	2.562532e-02	0.0	8.708662e-01	2.390008e-02	0.0	8.797412e-01	2.228748e-02	0.0	8.883724e-01	2.073380e-02	0.0	8.967608e-01	1.923577e-02	0.0	9.049101e-01	1.780321e-02	0.0	9.128185e-01	1.641299e-02	0.0	9.204871e-01	1.505585e-02	0.0	9.279202e-01	1.373851e-02	0.0	9.351190e-01	1.244989e-02	0.0	9.420857e-01	1.118043e-02	0.0	9.488277e-01	9.951375e-03	0.0	9.553437e-01	8.731899e-03	0.0	9.616435e-01	7.552870e-03	0.0	9.677272e-01	6.390796e-03	0.0	9.736030e-01	5.264310e-03	0.0	9.792723e-01	4.155655e-03	0.0	9.847421e-01	3.077601e-03	0.0	9.900162e-01	2.022958e-03	0.0	9.950989e-01	9.892290e-04	0.0	1.000000e+00	0.000000e+00	0.0	9.950041e-01	1.981111e-04	0.0	9.898204e-01	3.987847e-04	0.0	9.844422e-01	5.506737e-04	0.0	9.788654e-01	6.576832e-04	0.0	9.730857e-01	7.400939e-04	0.0	9.670980e-01	7.635500e-04	0.0	9.608982e-01	7.640384e-04	0.0	9.544820e-01	6.983803e-04	0.0	9.478448e-01	6.166147e-04	0.0	9.409839e-01	4.386315e-04	0.0	9.338934e-01	2.546937e-04	0.0	9.265732e-01	-4.230503e-05	0.0	9.190168e-01	-3.735357e-04	0.0	9.112269e-01	-8.234171e-04	0.0	9.032051e-01	-1.470773e-03	0.0	8.949378e-01	-2.137948e-03	0.0	8.864799e-01	-3.326697e-03	0.0	8.777817e-01	-4.619701e-03	0.0	8.689027e-01	-6.296823e-03	0.0	8.598781e-01	-8.542037e-03	0.0	8.506070e-01	-1.084861e-02	0.0	8.413485e-01	-1.408303e-02	0.0	8.318556e-01	-1.741858e-02	0.0	8.221514e-01	-2.091384e-02	0.0	8.122285e-01	-2.454380e-02	0.0	8.020101e-01	-2.807061e-02	0.0	7.913807e-01	-3.113158e-02	0.0	7.805180e-01	-3.425974e-02	0.0	7.691339e-01	-3.612079e-02	0.0	7.574913e-01	-3.789126e-02	0.0	7.455618e-01	-3.911088e-02	0.0	7.333552e-01	-3.981115e-02	0.0	7.209332e-01	-4.050576e-02	0.0	7.082910e-01	-4.092104e-02	0.0	6.954499e-01	-4.134285e-02	0.0	6.824306e-01	-4.200527e-02	0.0	6.692408e-01	-4.286845e-02	0.0	6.558838e-01	-4.376722e-02	0.0	6.424363e-01	-4.540294e-02	0.0	6.288428e-01	-4.705642e-02	0.0	6.151470e-01	-4.895662e-02	0.0	6.013605e-01	-5.109287e-02	0.0	5.874662e-01	-5.324582e-02	0.0	5.734946e-01	-5.552110e-02	0.0	5.594427e-01	-5.780995e-02	0.0	5.453111e-01	-6.002351e-02	0.0	5.311133e-01	-6.215372e-02	0.0	5.168783e-01	-6.428952e-02	0.0	5.025929e-01	-6.623289e-02	0.0	4.882996e-01	-6.817463e-02	0.0	4.740054e-01	-7.005111e-02	0.0	4.597252e-01	-7.185958e-02	0.0	4.454821e-01	-7.366263e-02	0.0	4.312827e-01	-7.539040e-02	0.0	4.171498e-01	-7.711005e-02	0.0	4.030841e-01	-7.869840e-02	0.0	3.891006e-01	-8.016516e-02	0.0	3.752240e-01	-8.159944e-02	0.0	3.614187e-01	-8.240555e-02	0.0	3.477482e-01	-8.320379e-02	0.0	3.342138e-01	-8.340816e-02	0.0	3.208289e-01	-8.312560e-02	0.0	3.076187e-01	-8.277843e-02	0.0	2.946747e-01	-8.121604e-02	0.0	2.819194e-01	-7.967641e-02	0.0	2.694280e-01	-7.772884e-02	0.0	2.571993e-01	-7.543664e-02	0.0	2.451819e-01	-7.318405e-02	0.0	2.334244e-01	-7.076048e-02	0.0	2.218915e-01	-6.837765e-02	0.0	2.105623e-01	-6.617374e-02	0.0	1.994298e-01	-6.421137e-02	0.0	1.885364e-01	-6.229114e-02	0.0	1.778407e-01	-6.069311e-02	0.0	1.673826e-01	-5.918755e-02	0.0	1.571751e-01	-5.770438e-02	0.0	1.472227e-01	-5.622366e-02	0.0	1.375215e-01	-5.478028e-02	0.0	1.281318e-01	-5.303001e-02	0.0	1.190125e-01	-5.120729e-02	0.0	1.101761e-01	-4.929220e-02	0.0	1.017148e-01	-4.689667e-02	0.0	9.349493e-02	-4.456945e-02	0.0	8.561787e-02	-4.198287e-02	0.0	7.802222e-02	-3.932328e-02	0.0	7.067551e-02	-3.669284e-02	0.0	6.362550e-02	-3.395323e-02	0.0	5.679658e-02	-3.129955e-02	0.0	5.019178e-02	-2.871387e-02	0.0	4.380173e-02	-2.620954e-02	0.0	3.762957e-02	-2.376735e-02	0.0	3.166539e-02	-2.140073e-02	0.0	2.597064e-02	-1.895020e-02	0.0	2.051765e-02	-1.648265e-02	0.0	1.538153e-02	-1.383061e-02	0.0	1.061400e-02	-1.094794e-02	0.0	6.206590e-03	-7.880685e-03	0.0	2.390421e-03	-4.366663e-03	0.0	5.412601e-01	9.813587e-02	0.0	5.224798e-01	9.433686e-02	0.0	5.350687e-01	7.941019e-02	0.0	8.261604e+01	3.718527e+01	0.0	7.988052e+01	2.711929e+01	0.0	8.803213e+01	2.935364e+01	0.0	8.484096e+01	8.385281e+00	0.0	9.219206e+01	-9.479079e-01	0.0	8.788206e+01	-9.985925e+00	0.0	7.355140e+01	4.681174e+01	0.0	8.020921e+01	-2.982684e+00	0.0	7.820830e+01	-1.499535e+01	0.0	8.269421e+01	-2.652218e+01	0.0	8.912607e+01	-1.800941e+01	0.0	5.315746e+01	2.449495e+01	0.0	4.382589e+01	3.092946e+01	0.0	4.229619e+01	2.121501e+01	0.0	4.597415e+01	-5.457180e+01	0.0	5.615807e+01	-4.894906e+01	0.0	4.642440e+01	-4.255550e+01	0.0	6.139703e+01	6.706194e+01	0.0	6.724864e+01	5.831382e+01	0.0	5.081268e+01	7.174412e+01	0.0	5.401418e+01	5.721671e+01	0.0	4.224671e+01	-6.720950e+01	0.0	5.274164e+01	-7.066936e+01	0.0	5.141732e+01	-6.323070e+01	0.0	7.730845e+01	-3.841233e+01	0.0	7.586808e+01	-4.977282e+01	0.0	4.212217e+01	8.052157e+01	0.0	6.653395e+01	-5.620343e+01	0.0	8.969215e+00	8.960452e+01	0.0	1.757439e+01	8.298091e+01	0.0	2.032335e+01	8.995849e+01	0.0	6.012652e+01	-6.611710e+01	0.0	7.793732e+00	7.815835e+01	0.0	8.601615e-01	-4.495470e-02	0.0	8.440012e-01	-5.249511e-02	0.0	8.616681e-01	-5.602304e-02	0.0	6.017864e-01	-7.104890e-02	0.0	6.143023e-01	-6.445579e-02	0.0	6.049464e-01	-5.978766e-02	0.0	1.882664e-01	-1.302398e-01	0.0	1.534707e-01	-1.410135e-01	0.0	1.850789e-01	-1.673839e-01	0.0	5.099143e-02	2.368767e-01	0.0	1.147402e-01	2.096347e-01	0.0	1.365157e-01	3.054507e-01	0.0	2.668156e-01	7.031437e-02	0.0	2.538624e-01	6.943940e-02	0.0	2.610624e-01	6.061307e-02	0.0	2.989053e-01	6.733251e-02	0.0	3.112682e-01	7.057624e-02	0.0	3.154806e-01	4.352767e-01	0.0	1.727165e-01	4.567934e-01	0.0	2.399404e-01	3.536900e-01	0.0	2.888107e-01	6.395614e-02	0.0	2.788817e-01	6.734995e-02	0.0	5.674720e-01	-7.445661e-02	0.0	5.586847e-01	-8.455393e-02	0.0	5.771419e-01	-8.529445e-02	0.0	5.986307e-01	-1.257906e-01	0.0	5.756251e-01	-1.556324e-01	0.0	6.194549e-01	-1.531273e-01	0.0	7.602856e-01	4.748704e-02	0.0	7.642505e-01	5.868945e-02	0.0	7.509404e-01	5.581779e-02	0.0	9.185490e-01	2.763607e-02	0.0	9.095375e-01	2.412222e-02	0.0	9.168748e-01	2.104960e-02	0.0	8.896357e-01	4.086503e-02	0.0	9.028417e-01	4.274684e-02	0.0	8.960943e-01	5.126942e-02	0.0	2.821381e+01	6.603091e+00	0.0	1.836085e+01	6.236144e+00	0.0	2.078982e+01	2.539617e-01	0.0	2.518005e+01	3.760888e+01	0.0	1.987515e+01	2.870754e+01
[...]
POINT_DATA 1818

SCALARS Density double 1
LOOKUP_TABLE default
1.291425e+00	1.291571e+00	1.292051e+00	1.292244e+00	1.292167e+00	1.292116e+00	1.292097e+00	1.292068e+00	1.292032e+00	1.292001e+00	1.291975e+00	1.291966e+00	1.291979e+00	1.292017e+00	1.292074e+00	1.292128e+00	1.292179e+00	1.292216e+00	1.292243e+00	1.292263e+00	1.292277e+00	1.292288e+00	1.292296e+00	1.292303e+00	1.292309e+00	1.292316e+00	1.292323e+00	1.292332e+00	1.292343e+00	1.292357e+00	1.292376e+00	1.292401e+00	1.292431e+00	1.292467e+00	1.292512e+00	1.292558e+00	1.292606e+00	1.292640e+00	1.292641e+00	1.292618e+00	1.292579e+00	1.292534e+00	1.292482e+00	1.292434e+00	1.292384e+00	1.292345e+00	1.292354e+00	1.292294e+00	1.291874e+00	1.560377e+00	1.275932e+00	1.325025e+00	1.276091e+00	1.263488e+00	1.250623e+00	1.250451e+00	1.253385e+00	1.269849e+00	1.283030e+00	1.299314e+00	1.307515e+00	1.303153e+00	1.280406e+00	1.236864e+00	1.131426e+00	1.021613e+00	8.645102e-01	7.241593e-01	5.943240e-01	4.961257e-01	4.379341e-01	3.957570e-01	4.020971e-01	4.247534e-01	4.372238e-01	5.114222e-01	5.904351e-01	8.558864e-01	1.147398e+00	1.155635e+00	1.126155e+00	1.108175e+00	1.075223e+00	1.048362e+00	1.020419e+00	9.686917e-01	9.331872e-01	9.249095e-01	9.095174e-01	9.153941e-01	9.298676e-01	9.480713e-01	9.760954e-01	9.904522e-01	1.003827e+00	1.013387e+00	1.022039e+00	1.030804e+00	1.035103e+00	1.045993e+00	1.050436e+00	1.062493e+00	1.081166e+00	1.091525e+00	1.111819e+00	1.130965e+00	1.145237e+00	1.161185e+00	1.175586e+00	1.180879e+00	1.192972e+00	1.195492e+00	1.186358e+00	1.187372e+00	1.175875e+00	1.161756e+00	1.151188e+00	1.135310e+00	1.116865e+00	1.112367e+00	1.096663e+00	1.097873e+00	1.114513e+00	1.121908e+00	1.141596e+00	1.155983e+00	1.171083e+00	1.185793e+00	1.193757e+00	1.201987e+00	1.208666e+00	1.212587e+00	1.217742e+00	1.221735e+00	1.225246e+00	1.229154e+00	1.232918e+00	1.236369e+00	1.240736e+00	1.244530e+00	1.248670e+00	1.253027e+00	1.257384e+00	1.262270e+00	1.267209e+00	1.273468e+00	1.283003e+00	1.279538e+00	1.306022e+00	1.421574e+00	1.384059e+00	1.388827e+00	1.391767e+00	1.395594e+00	1.398190e+00	1.400681e+00	1.404451e+00	1.406892e+00	1.410478e+00	1.414378e+00	1.418286e+00	1.425900e+00	1.426514e+00	1.436701e+00	1.440435e+00	1.438260e+00	1.446163e+00	1.434043e+00	1.436584e+00	1.426770e+00	1.394243e+00	1.370508e+00	1.331287e+00	1.280870e+00	1.240021e+00	1.163906e+00	1.125730e+00	1.129044e+00	1.124676e+00	1.162242e+00	1.194539e+00	1.222877e+00	1.259383e+00	1.282169e+00	1.292242e+00	1.314136e+00	1.317900e+00	1.308119e+00	1.306253e+00	1.293411e+00	1.281193e+00	1.268965e+00	1.251801e+00	1.237002e+00	1.226091e+00	1.211496e+00	1.202650e+00	1.197545e+00	1.189790e+00	1.185966e+00	1.184243e+00	1.193775e+00	1.171265e+00	1.027764e+00	8.309245e-01	7.496652e-01	7.603476e-01	7.796925e-01	8.024075e-01	8.454222e-01	8.705186e-01	9.410098e-01	1.019148e+00	1.059365e+00	1.116540e+00	1.157007e+00	1.193188e+00	1.234140e+00	1.263447e+00	1.276623e+00	1.289914e+00	1.297234e+00	1.288037e+00	1.281311e+00	1.276329e+00	1.257076e+00	1.248011e+00	1.252120e+00	1.238563e+00	1.254909e+00	1.277610e+00	1.295697e+00	1.328421e+00	1.349427e+00	1.374160e+00	1.401607e+00	1.420162e+00	1.437593e+00	1.452539e+00	1.463258e+00	1.476543e+00	1.491069e+00	1.508558e+00	1.535915e+00	1.569627e+00	1.587096e+00	1.680460e+00	1.091578e+00	1.071910e+00	1.075774e+00	1.292163e+00	1.292095e+00	1.292146e+00	1.291735e+00	1.291642e+00	1.291945e+00	1.292094e+00	1.291830e+00	1.292131e+00	1.292307e+00	1.292144e+00	1.292146e+00	1.292027e+00	1.292055e+00	1.292486e+00	1.292420e+00	1.292445e+00	1.292062e+00	1.292075e+00	1.292021e+00	1.292029e+00	1.292540e+00	1.292499e+00	1.292490e+00	1.292329e+00	1.292355e+00	1.291993e+00	1.292408e+00	1.291937e+00	1.291919e+00	1.291946e+00	1.292456e+00	1.291892e+00	1.389070e+00	1.359497e+00	1.380203e+00	1.279008e+00	1.289094e+00	1.283575e+00	1.267905e+00	1.288634e+00	1.268239e+00	1.210507e+00	1.090888e+00	1.111841e+00	1.048142e+00	1.054168e+00	1.078499e+00	9.913150e-01	9.602820e-01	1.110627e+00	1.150312e+00	1.054898e+00	1.022103e+00	1.036728e+00	1.250139e+00	1.243353e+00	1.258410e+00	1.265423e+00	1.251076e+00	1.268076e+00	1.122936e+00	1.129416e+00	1.136818e+00	1.228160e+00	1.223457e+00	1.227195e+00	1.212118e+00	1.220393e+00	1.217773e+00	1.291591e+00	1.291561e+00	1.290884e+00	1.291784e+00	1.291646e+00	1.291837e+00	1.291922e+00	1.287235e+00	1.290416e+00	1.279017e+00	1.258609e+00	1.286866e+00	1.258203e+00	1.275635e+00	1.261301e+00	1.266010e+00	1.277908e+00	1.264208e+00	1.259876e+00	1.286303e+00	1.289257e+00	1.271875e+00	1.269165e+00	1.266808e+00	1.264163e+00	1.314905e+00	1.274091e+00	1.348891e+00	1.346109e+00	1.280092e+00	1.225360e+00	1.240673e+00	1.358242e+00	1.414746e+00	1.423536e+00	1.417291e+00	1.410744e+00	1.405519e+00	1.432844e+00	1.430309e+00	1.196139e+00	1.426274e+00	1.435494e+00	1.421540e+00	1.418115e+00	1.422031e+00	1.205719e+00	1.160023e+00	1.420460e+00	1.412781e+00	1.409161e+00	1.431699e+00	1.423949e+00	1.426554e+00	1.415451e+00	1.408034e+00	1.191655e+00	1.167813e+00	1.167598e+00	1.410756e+00	1.410935e+00	1.414652e+00	1.407364e+00	1.249798e+00	1.252553e+00	1.234159e+00	1.222330e+00	1.229657e+00	1.260570e+00	1.274351e+00	1.059409e+00	1.169332e+00	1.107656e+00	1.278575e+00	1.261961e+00	1.276280e+00	8.182786e-01	7.042944e-01	6.766173e-01	7.585993e-01	7.541985e-01	7.238527e-01	8.856371e-01	9.828306e-01	1.279146e+00	1.280279e+00	1.267992e+00	1.219892e+00	1.219855e+00	1.233705e+00	1.237544e+00	1.238843e+00	1.255793e+00	1.252173e+00	1.248426e+00	1.264784e+00	1.270996e+00	1.265526e+00	1.216700e+00	1.211777e+00	1.217271e+00	1.204658e+00	1.207559e+00	1.191290e+00	1.192279e+00	1.177332e+00	1.199488e+00	1.191809e+00	1.196935e+00	1.291773e+00	1.291841e+00	1.291837e+00	9.226796e-01	9.365512e-01	1.066473e+00	1.088995e+00	9.419904e-01	5.642020e-01	4.899841e-01	5.434219e-01	9.369248e-01	9.257459e-01	9.432890e-01	1.178817e+00	9.263308e-01	1.133260e+00	4.727541e-01	4.843267e-01	5.617259e-01	9.546512e-01	9.793826e-01	9.682822e-01	1.026100e+00	1.055095e+00	1.036730e+00	1.040433e+00	1.276130e+00	1.277197e+00	1.278018e+00	1.209120e+00	1.302294e+00	1.298544e+00	1.303423e+00	1.214759e+00	1.226050e+00	1.233551e+00	1.252983e+00	1.236436e+00	1.194116e+00	1.188893e+00	1.296993e+00	1.191341e+00	1.308431e+00	1.306631e+00	1.202340e+00	1.204428e+00	1.151460e+00	1.198519e+00	1.059519e+00	1.139933e+00	1.201175e+00	8.232692e-01	8.487553e-01	1.266967e+00	1.252075e+00	1.232998e+00	1.207077e+00	1.236400e+00	1.212341e+00	1.280170e+00	9.988099e-01	9.314498e-01	9.486898e-01	1.271605e+00	1.283395e+00	1.285659e+00	1.283190e+00	1.285610e+00	1.285429e+00	1.406878e+00	1.372189e+00	1.376070e+00	1.283160e+00	1.289860e+00	1.109368e+00	1.116621e+00	1.153739e+00	1.175235e+00	1.158357e+00	1.114694e+00	1.201330e+00	1.183018e+00	1.188210e+00	1.170912e+00	1.165399e+00	1.163799e+00	1.132548e+00	1.121919e+00	1.386068e+00	1.389773e+00	1.382594e+00	1.358135e+00	1.351940e+00	1.369802e+00	1.407543e+00	1.404329e+00	1.405218e+00	1.295453e+00	1.294402e+00	1.294883e+00	1.199553e+00	1.270741e+00	1.284125e+00	1.269334e+00	1.296447e+00	1.297590e+00	1.296288e+00	1.297888e+00	8.926388e-01	8.890522e-01	9.477863e-01	1.126695e+00	1.098430e+00	1.179760e+00	1.197852e+00	1.214195e+00	1.292651e+00	1.292620e+00	1.185020e+00	1.165932e+00	1.227811e+00	1.245544e+00	1.292682e+00	1.292610e+00	1.292653e+00	1.292790e+00	1.296018e+00	1.281278e+00	1.275728e+00	1.266955e+00	1.280361e+00	1.264184e+00	1.292601e+00	1.292551e+00	1.292530e+00	1.301526e+00	1.370420e+00	1.390411e+00	1.380219e+00	1.370428e+00	1.347056e+00	1.449436e+00	1.352326e+00	1.380179e+00	1.464277e+00	1.292681e+00	1.292659e+00	1.453559e+00	1.438476e+00	1.470568e+00	1.487962e+00	1.477357e+00	1.485039e+00	1.470928e+00	1.452097e+00	1.522172e+00	1.500838e+00	1.508993e+00	1.562636e+00	1.534439e+00	1.454433e+00	1.483693e+00	1.485647e+00	1.433220e+00	1.438700e+00	1.314603e+00	1.308219e+00	1.305967e+00	1.420415e+00	1.393550e+00	1.424722e+00	1.292561e+00	1.309172e+00	1.304138e+00	1.303470e+00	1.292800e+00	1.292835e+00	1.292990e+00	1.296985e+00	1.295492e+00	1.296484e+00	1.292526e+00	1.292457e+00	1.292451e+00	1.333409e+00	1.353353e+00	1.337522e+00	1.292489e+00	1.292761e+00	1.292610e+00	1.292617e+00	1.292457e+00	1.292407e+00	1.292472e+00	1.292348e+00	1.292349e+00	1.292358e+00	1.292333e+00	1.292334e+00	1.292381e+00	1.292388e+00	1.292358e+00	1.292353e+00	1.292339e+00	1.292321e+00	1.292314e+00	1.292291e+00	1.292302e+00	1.292304e+00	1.292274e+00	1.292242e+00	1.292260e+00	1.292280e+00	1.292227e+00	1.287943e+00	1.286502e+00	1.290405e+00	1.292275e+00	1.292226e+00	1.292148e+00	1.272510e+00	1.294283e+00	1.292214e+00	1.292243e+00	1.244737e+00	1.300708e+00	1.304183e+00	1.292371e+00	1.292160e+00	1.240693e+00	1.216358e+00	7.092550e-01	6.550112e-01	4.314465e-01	4.415626e-01	4.299080e-01	1.292106e+00	1.287240e+00	4.371676e-01	4.469707e-01	1.292066e+00	1.292026e+00	1.291989e+00	1.289366e+00	1.289669e+00	1.290875e+00	1.118582e+00	1.075529e+00	1.084075e+00	1.241831e+00	1.258207e+00	1.286866e+00	1.283650e+00	1.049312e+00	1.056564e+00	1.058827e+00	1.085676e+00	1.073235e+00	1.203328e+00	1.183651e+00	1.204814e+00	1.178230e+00	1.125378e+00	1.174116e+00	1.180569e+00	1.176827e+00	1.229011e+00	1.203990e+00	1.195257e+00	1.151546e+00	1.140409e+00	1.186410e+00	1.181839e+00	1.227166e+00	1.247708e+00	1.225679e+00	1.238592e+00	1.187960e+00	1.182596e+00	1.220210e+00	1.254724e+00	1.166180e+00	1.167057e+00	1.060556e+00	1.092134e+00	1.092313e+00	1.310968e+00	1.276813e+00	1.283623e+00	1.292315e+00	1.292348e+00	1.402396e+00	1.398962e+00	1.292591e+00	1.292999e+00	1.292761e+00	1.291897e+00	1.291784e+00	1.290961e+00	1.291799e+00	1.291086e+00	1.292378e+00	1.292717e+00	1.292892e+00	1.291957e+00	1.291985e+00	1.292658e+00	1.293238e+00	1.293120e+00	1.292447e+00	1.292463e+00	1.292690e+00	1.291783e+00	1.291373e+00	1.292085e+00	1.291723e+00	1.292082e+00	1.292133e+00	1.292156e+00	1.292184e+00	1.292242e+00	1.292173e+00	1.292257e+00	1.293155e+00	1.293651e+00	1.293077e+00	1.291849e+00	1.291790e+00	1.291543e+00	1.293009e+00	1.292497e+00	1.292691e+00	1.292819e+00	1.292600e+00	1.338724e+00	1.373173e+00	1.374452e+00	1.291970e+00	1.291960e+00	1.292215e+00	1.291890e+00	1.292398e+00	1.292501e+00	1.292391e+00	1.292398e+00	1.292291e+00	1.292280e+00	1.292269e+00	1.292683e+00	1.292649e+00	1.292769e+00	1.292711e+00	1.292743e+00	1.292317e+00	1.292483e+00	1.292354e+00	1.291822e+00	1.291731e+00	1.291927e+00	1.291961e+00	1.292073e+00	1.292067e+00	1.292131e+00	1.292516e+00	1.292525e+00	1.292456e+00	1.291946e+00	1.291963e+00	1.291840e+00	1.291990e+00	1.292034e+00	1.292240e+00	1.292013e+00	1.291840e+00	1.292298e+00	1.292345e+00	1.292305e+00	1.292527e+00	1.292680e+00	1.400078e+00	1.396205e+00	1.292793e+00	9.804276e-01	1.011627e+00	9.855285e-01	1.291290e+00	1.290990e+00	1.292115e+00	1.291609e+00	1.292669e+00	1.291569e+00	1.291698e+00	1.292311e+00	1.291493e+00	1.291957e+00	1.291840e+00	1.292579e+00	1.292649e+00	1.292375e+00	1.292359e+00	1.293475e+00	1.293599e+00	1.294063e+00	1.388417e+00	1.350289e+00	1.349165e+00	1.291796e+00	1.291977e+00	1.292204e+00	1.293319e+00	1.293365e+00	1.292332e+00	1.292288e+00	1.292623e+00	1.292569e+00	1.292415e+00	1.292446e+00	1.292301e+00	1.292414e+00	1.292456e+00	1.292367e+00	1.292721e+00	1.292030e+00	1.291948e+00	1.292412e+00	1.292669e+00	1.292722e+00	1.292409e+00	1.292355e+00	1.292537e+00	1.292619e+00	1.291979e+00	1.291955e+00	1.291922e+00	1.291951e+00	1.291837e+00	1.291924e+00	1.291892e+00	1.291902e+00	1.291970e+00	1.291905e+00	1.291889e+00	1.292199e+00	1.292754e+00	1.292748e+00	1.292810e+00	1.292057e+00	1.292090e+00	1.292718e+00	1.292523e+00	1.292521e+00	1.293472e+00	1.292665e+00	1.292950e+00	1.292833e+00	1.292768e+00	1.292411e+00	1.023323e+00	1.020007e+00	1.291111e+00	1.292384e+00	1.291743e+00	1.291611e+00	1.291946e+00	1.292043e+00	1.291713e+00	1.291575e+00	1.292695e+00	1.292141e+00	1.292187e+00	1.292395e+00	1.292419e+00	1.292587e+00	1.292065e+00	1.291713e+00	1.292347e+00	1.292595e+00	1.291553e+00	1.291683e+00	1.292096e+00	1.292694e+00	1.198456e+00	1.292664e+00	1.291976e+00	1.290406e+00	1.292395e+00	1.294636e+00	1.292191e+00	1.278160e+00	1.282196e+00	1.281491e+00	1.290841e+00	1.291385e+00	1.291923e+00	1.290671e+00	1.292170e+00	1.289875e+00	1.291990e+00	1.292822e+00	1.293866e+00	1.293480e+00	1.293509e+00	1.286393e+00	1.289290e+00	1.289924e+00	1.292876e+00	1.294358e+00	1.295770e+00	1.294204e+00	1.311791e+00	1.326435e+00	1.303717e+00	1.293858e+00	1.294408e+00	1.181609e+00	1.291646e+00	1.301501e+00	1.297674e+00	1.294160e+00	1.293825e+00	1.293446e+00	1.290560e+00	1.293178e+00	1.309843e+00	1.321991e+00	1.311106e+00	1.289109e+00	1.292196e+00	1.295613e+00	1.290814e+00	1.289365e+00	1.032293e+00	1.039011e+00	1.293379e+00	1.292957e+00	1.302404e+00	1.284211e+00	1.285885e+00	1.296580e+00	1.297540e+00	1.294366e+00	1.296726e+00	1.293796e+00	1.291682e+00	1.361211e+00	1.357350e+00	1.367859e+00	1.292975e+00	1.293836e+00	1.287879e+00	1.295632e+00	1.295036e+00	1.295459e+00	1.271417e+00	1.286763e+00	1.284861e+00	1.289266e+00	1.291044e+00	1.297264e+00	1.295616e+00	1.296875e+00	1.294071e+00	1.296716e+00	1.296041e+00	1.294129e+00	1.294532e+00	1.295468e+00	1.269073e+00	1.273229e+00	1.321387e+00	1.310538e+00	1.322251e+00	1.295246e+00	1.291985e+00	1.279219e+00	1.298351e+00	9.677594e-01	1.291678e+00	1.297121e+00	1.298880e+00	1.517953e+00	1.482750e+00	1.513251e+00	1.301990e+00	1.293249e+00	1.283440e+00	1.297573e+00	1.283638e+00	1.279689e+00	1.292290e+00	1.297244e+00	1.450622e+00	1.468244e+00	1.442483e+00	1.286581e+00	1.292712e+00	1.281361e+00	1.346926e+00	1.326819e+00	1.340733e+00	1.300727e+00	1.298609e+00	1.300597e+00	1.300003e+00	1.172915e+00	1.162659e+00	1.275196e+00	1.291140e+00	5.950305e-01	6.416206e-01	1.299380e+00	1.303164e+00	1.300228e+00	1.298011e+00	1.234351e+00	1.266656e+00	1.298503e+00	1.318957e+00	1.304687e+00	1.291600e+00	1.252961e+00	1.293911e+00	1.298922e+00	1.310592e+00	1.391420e+00	1.289451e+00	1.299072e+00	1.303156e+00	1.239523e+00	1.271940e+00	1.227429e+00	1.321475e+00	1.307583e+00	1.335078e+00	1.297907e+00	1.076896e+00	1.115417e+00	1.080915e+00	1.281004e+00	1.291905e+00	1.287612e+00	1.298988e+00	1.261709e+00	1.280255e+00	1.370558e+00	1.306148e+00	1.297170e+00	1.207044e+00	1.212593e+00	1.301879e+00	1.303576e+00	1.295813e+00	1.316499e+00	1.307737e+00	1.303086e+00	1.310916e+00	1.290840e+00	1.302586e+00	1.317521e+00	1.290610e+00	1.305393e+00	1.310127e+00	1.295670e+00	1.295365e+00	1.216933e+00	1.291712e+00	1.278321e+00	1.285684e+00	1.509193e+00	1.317438e+00	1.323599e+00	9.414963e-01	1.196870e+00	1.272248e+00	1.286885e+00	1.263352e+00	1.268603e+00	1.270388e+00	1.278966e+00	1.277667e+00	1.321383e+00	1.307912e+00	1.362948e+00	1.328950e+00	1.307217e+00	1.282133e+00	1.286615e+00	1.278822e+00	1.281033e+00	1.273408e+00	1.143018e+00	1.153093e+00	1.158054e+00	1.285539e+00	1.253681e+00	1.266725e+00	1.256561e+00	1.243428e+00	1.336663e+00	1.323197e+00	1.335561e+00	1.340197e+00	1.159269e+00	1.322493e+00	1.319891e+00	1.298960e+00	1.297962e+00	1.118885e+00	1.103977e+00	1.177579e+00	1.220253e+00	1.243863e+00	1.233760e+00	1.236564e+00	1.293084e+00	1.303798e+00	1.394704e+00	1.379700e+00	1.356858e+00	1.375087e+00	1.300617e+00	9.011796e-01	9.784303e-01	6.295849e-01	6.373186e-01	1.331608e+00	1.355552e+00	1.334089e+00	1.174736e+00	1.149269e+00	1.313862e+00	1.288406e+00	1.229715e+00	1.206452e+00	1.300291e+00	1.274545e+00	1.322780e+00	1.280876e+00	1.172844e+00	1.221056e+00	1.282132e+00	1.355636e+00	1.282155e+00	1.332953e+00	1.264850e+00	1.289812e+00	1.451975e+00	1.161705e+00	1.145928e+00	1.242055e+00	1.263792e+00	1.217018e+00	1.213788e+00	1.230122e+00	1.277309e+00	1.289568e+00	1.339257e+00	1.277988e+00	1.179016e+00	1.277548e+00	1.188197e+00	1.272506e+00	1.269352e+00	1.449674e+00	1.429610e+00	1.408450e+00	1.383059e+00	1.406722e+00	1.086505e+00	1.139672e+00	1.002591e+00	1.123353e+00	1.006771e+00	1.014516e+00	1.305657e+00	1.378227e+00	1.364235e+00	9.982481e-01	9.748839e-01	8.746238e-01	1.247172e+00	1.294841e+00	1.270663e+00	1.286466e+00	1.321117e+00	1.084828e+00	1.068198e+00	1.179659e+00	1.199055e+00	1.330585e+00	1.319735e+00	1.337477e+00	1.344081e+00	1.339350e+00	1.342902e+00	1.344362e+00	1.381200e+00	1.370268e+00	1.372006e+00	1.335694e+00	1.337121e+00	1.157113e+00	1.007458e+00	1.087978e+00	1.092580e+00	1.406065e+00	1.483053e+00	1.392214e+00	1.330431e+00	1.368935e+00	1.358147e+00	1.236839e+00	1.224889e+00	1.230109e+00	1.261006e+00	1.359257e+00	1.215421e+00	1.211408e+00	1.060972e+00	5.789868e-01	1.231443e+00	1.263443e+00	1.131645e+00	1.273202e+00	1.266681e+00	1.181005e+00	7.837179e-01	7.792035e-01	7.936747e-01	1.286847e+00	1.290998e+00	1.202306e+00	1.226494e+00	1.367494e+00	1.339434e+00	1.381582e+00	1.408893e+00	1.394612e+00	1.263800e+00	1.148555e+00	1.118846e+00	1.199016e+00	1.156316e+00	1.157363e+00	1.277611e+00	1.277043e+00	1.287856e+00	1.054807e+00	1.021098e+00	9.969955e-01	1.021061e+00	1.004900e+00	1.201530e+00	1.355015e+00	9.638804e-01	7.865200e-01	8.169238e-01	1.297191e+00	1.246767e+00	1.243565e+00	4.256213e-01	9.573174e-01	1.259053e+00	1.242075e+00	1.239749e+00	1.333355e+00	1.330789e+00	1.345868e+00	1.401451e+00	1.400059e+00	1.545374e+00	1.548292e+00	1.173208e+00	1.190250e+00	1.193563e+00	1.140317e+00	1.071872e+00	1.119430e+00	1.100785e+00	1.015803e+00	1.040285e+00	1.080260e+00	1.088245e+00	1.197222e+00	1.213973e+00	9.243000e-01	1.026381e+00	8.815900e-01	1.586049e+00	1.602522e+00	1.608857e+00	1.418293e+00	1.276941e+00	1.284677e+00	1.275795e+00	1.314007e+00	1.040601e+00	1.040367e+00	1.316783e+00	1.381643e+00	1.364836e+00	1.225892e+00	1.242228e+00	1.459204e+00	8.795893e-01	9.472396e-01	1.388806e+00	1.031524e+00	1.106485e+00	8.756554e-01	1.032021e+00	1.070718e+00	1.010614e+00	8.899018e-01	9.552271e-01	1.278763e+00	1.297611e+00	1.271670e+00	1.353652e+00	1.346810e+00	1.330978e+00	1.339058e+00	1.317535e+00	1.274305e+00	1.336722e+00	1.142530e+00	1.131895e+00	1.161530e+00	1.183622e+00	1.382460e+00	1.395901e+00	1.347196e+00	1.054288e+00	1.119036e+00	1.289722e+00	1.262689e+00	1.347238e+00	1.410883e+00	1.459431e+00	1.590011e+00	1.604226e+00	1.181237e+00	1.178330e+00	1.177076e+00	1.202708e+00	1.196026e+00	1.432082e+00	1.406218e+00	1.016829e+00	1.043269e+00	1.250984e+00	1.234797e+00	1.257305e+00	1.227643e+00	1.257607e+00	1.244011e+00	1.328303e+00	1.170090e+00	1.148612e+00	1.179935e+00	1.249605e+00	1.291410e+00	1.279142e+00	1.149591e+00	1.193820e+00	1.246654e+00	1.262880e+00	1.211155e+00	1.219504e+00	1.373944e+00	1.385425e+00	1.305781e+00	1.288465e+00	1.272072e+00	1.254457e+00	1.389849e+00	1.362661e+00	1.048185e+00	1.020222e+00	1.216749e+00	1.013765e+00	1.048199e+00	1.391872e+00	1.239482e+00	1.267932e+00	1.256600e+00	1.360585e+00	1.443173e+00	1.240095e+00	1.234873e+00	1.220252e+00	1.018138e+00	9.987370e-01	1.010805e+00	1.144678e+00	1.175014e+00	1.276000e+00	1.271750e+00	1.271918e+00	1.273866e+00	1.277700e+00	1.298680e+00	1.296123e+00	1.127558e+00	1.134172e+00	1.214611e+00	7.760033e-01	8.430014e-01	1.435532e+00	1.167734e+00	1.168145e+00	1.166500e+00	1.175398e+00	1.320752e+00	1.345347e+00	1.317713e+00	1.324234e+00	1.108444e+00	7.202348e-01	1.305661e+00	1.168172e+00	1.181679e+00	1.268555e+00	1.277463e+00	1.264171e+00	1.380087e+00	1.397428e+00	1.197582e+00	1.230476e+00	1.245778e+00	1.237999e+00	1.243366e+00	1.255954e+00	5.155929e-01	8.146139e-01	9.964388e-01	9.129885e-01	1.065613e+00	1.118123e+00	1.143812e+00	1.450892e+00	1.516806e+00	1.508050e+00	1.465206e+00	1.315974e+00	1.403292e+00	1.073252e+00	1.114709e+00	9.786181e-01	8.541339e-01	1.089975e+00	1.281154e+00	1.283517e+00	1.278425e+00	1.277663e+00	1.258844e+00	1.269475e+00	1.056768e+00	1.207419e+00	1.226899e+00	1.166995e+00	1.192360e+00	1.255705e+00	1.266289e+00	1.422256e+00	9.941248e-01	9.722324e-01	8.866444e-01	9.919372e-01	1.276763e+00	1.289369e+00	1.186845e+00	1.270656e+00	1.269331e+00	1.481483e+00	1.504878e+00	1.398219e+00	1.203028e+00	1.204044e+00	1.197546e+00	1.129151e+00	1.235239e+00	1.177212e+00	9.596316e-01	9.523347e-01	1.422211e+00	1.431406e+00	1.284981e+00	1.272485e+00	9.093552e-01	8.705824e-01	8.524409e-01	1.406507e+00	1.246504e+00	1.354504e+00	1.151987e+00	1.159055e+00	1.264945e+00	1.147128e+00	1.130352e+00	1.136915e+00	1.397355e+00	1.396621e+00	1.401685