# vtk DataFile Version 3.0
vtk output
ASCII
DATASET UNSTRUCTURED_GRID
POINTS 198 double
0.000000e+00	0.000000e+00	0.0	3.487158e-03	3.583257e-03	0.0	7.257034e-03	7.118267e-03	0.0	1.171096e-02	1.013334e-02	0.0	1.641907e-02	1.310432e-02	0.0	2.155915e-02	1.574034e-02	0.0	2.692999e-02	1.836871e-02	0.0	3.264565e-02	2.075485e-02	0.0	3.858205e-02	2.316879e-02	0.0	4.478591e-02	2.550475e-02	0.0	5.118466e-02	2.795810e-02	0.0	5.776966e-02	3.056254e-02	0.0	6.447431e-02	3.347431e-02	0.0	7.130395e-02	3.669015e-02	0.0	7.822596e-02	4.025445e-02	0.0	8.531108e-02	4.403287e-02	0.0	9.288153e-02	4.736603e-02	0.0	1.007488e-01	5.060642e-02	0.0	1.093351e-01	5.239170e-02	0.0	1.181972e-01	5.386846e-02	0.0	1.274632e-01	5.354260e-02	0.0	1.369799e-01	5.319428e-02	0.0	1.466500e-01	5.176067e-02	0.0	1.565691e-01	5.029016e-02	0.0	1.667512e-01	4.889128e-02	0.0	1.771896e-01	4.752710e-02	0.0	1.878819e-01	4.625439e-02	0.0	1.988977e-01	4.603879e-02	0.0	2.101539e-01	4.581849e-02	0.0	2.216089e-01	4.643486e-02	0.0	2.332659e-01	4.770570e-02	0.0	2.451456e-01	4.901511e-02	0.0	2.571565e-01	5.098774e-02	0.0	2.693773e-01	5.299485e-02	0.0	2.818145e-01	5.494675e-02	0.0	2.944622e-01	5.682598e-02	0.0	3.072958e-01	5.873282e-02	0.0	3.203980e-01	5.986048e-02	0.0	3.336754e-01	6.093400e-02	0.0	3.471262e-01	6.168721e-02	0.0	3.607466e-01	6.196684e-02	0.0	3.745005e-01	6.224922e-02	0.0	3.883761e-01	6.205813e-02	0.0	4.023596e-01	6.182092e-02	0.0	4.164350e-01	6.147897e-02	0.0	4.305872e-01	6.099612e-02	0.0	4.448058e-01	6.051100e-02	0.0	4.590697e-01	5.986069e-02	0.0	4.733704e-01	5.919874e-02	0.0	4.876855e-01	5.839713e-02	0.0	5.019989e-01	5.743222e-02	0.0	5.163048e-01	5.646781e-02	0.0	5.305531e-01	5.507917e-02	0.0	5.447634e-01	5.368246e-02	0.0	5.588981e-01	5.208079e-02	0.0	5.729406e-01	5.025648e-02	0.0	5.869032e-01	4.844256e-02	0.0	6.007646e-01	4.658288e-02	0.0	6.145188e-01	4.473539e-02	0.0	6.281737e-01	4.307577e-02	0.0	6.417222e-01	4.165043e-02	0.0	6.551260e-01	4.024031e-02	0.0	6.684281e-01	3.957652e-02	0.0	6.815679e-01	3.899267e-02	0.0	6.945343e-01	3.865843e-02	0.0	7.073208e-01	3.872133e-02	0.0	7.199104e-01	3.878326e-02	0.0	7.322939e-01	3.893522e-02	0.0	7.444646e-01	3.909936e-02	0.0	7.564144e-01	3.907710e-02	0.0	7.681363e-01	3.876525e-02	0.0	7.796266e-01	3.845470e-02	0.0	7.908268e-01	3.731142e-02	0.0	8.017877e-01	3.619256e-02	0.0	8.124444e-01	3.463406e-02	0.0	8.228343e-01	3.294004e-02	0.0	8.329532e-01	3.114374e-02	0.0	8.427989e-01	2.924329e-02	0.0	8.523989e-01	2.739746e-02	0.0	8.617564e-01	2.562532e-02	0.0	8.708662e-01	2.390008e-02	0.0	8.797412e-01	2.228748e-02	0.0	8.883724e-01	2.073380e-02	0.0	8.967608e-01	1.923577e-02	0.0	9.049101e-01	1.780321e-02	0.0	9.128185e-01	1.641299e-02	0.0	9.204871e-01	1.505585e-02	0.0	9.279202e-01	1.373851e-02	0.0	9.351190e-01	1.244989e-02	0.0	9.420857e-01	1.118043e-02	0.0	9.488277e-01	9.951375e-03	0.0	9.553437e-01	8.731899e-03	0.0	9.616435e-01	7.552870e-03	0.0	9.677272e-01	6.390796e-03	0.0	9.736030e-01	5.264310e-03	0.0	9.792723e-01	4.155655e-03	0.0	9.847421e-01	3.077601e-03	0.0	9.900162e-01	2.022958e-03	0.0	9.950989e-01	9.892290e-04	0.0	1.000000e+00	0.000000e+00	0.0	9.950041e-01	1.981111e-04	0.0	9.898204e-01	3.987847e-04	0.0	9.844422e-01	5.506737e-04	0.0	9.788654e-01	6.576832e-04	0.0	9.730857e-01	7.400939e-04	0.0	9.670980e-01	7.635500e-04	0.0	9.608982e-01	7.640384e-04	0.0	9.544820e-01	6.983803e-04	0.0	9.478448e-01	6.166147e-04	0.0	9.409839e-01	4.386315e-04	0.0	9.338934e-01	2.546937e-04	0.0	9.265732e-01	-4.230503e-05	0.0	9.190168e-01	-3.735357e-04	0.0	9.112269e-01	-8.234171e-04	0.0	9.032051e-01	-1.470773e-03	0.0	8.949378e-01	-2.137948e-03	0.0	8.864799e-01	-3.326697e-03	0.0	8.777817e-01	-4.619701e-03	0.0	8.689027e-01	-6.296823e-03	0.0	8.598781e-01	-8.542037e-03	0.0	8.506070e-01	-1.084861e-02	0.0	8.413485e-01	-1.408303e-02	0.0	8.318556e-01	-1.741858e-02	0.0	8.221514e-01	-2.091384e-02	0.0	8.122285e-01	-2.454380e-02	0.0	8.020101e-01	-2.807061e-02	0.0	7.913807e-01	-3.113158e-02	0.0	7.805180e-01	-3.425974e-02	0.0	7.691339e-01	-3.612079e-02	0.0	7.574913e-01	-3.789126e-02	0.0	7.455618e-01	-3.911088e-02	0.0	7.333552e-01	-3.981115e-02	0.0	7.209332e-01	-4.050576e-02	0.0	7.082910e-01	-4.092104e-02	0.0	6.954499e-01	-4.134285e-02	0.0	6.824306e-01	-4.200527e-02	0.0	6.692408e-01	-4.286845e-02	0.0	6.558838e-01	-4.376722e-02	0.0	6.424363e-01	-4.540294e-02	0.0	6.288428e-01	-4.705642e-02	0.0	6.151470e-01	-4.895662e-02	0.0	6.013605e-01	-5.109287e-02	0.0	5.874662e-01	-5.324582e-02	0.0	5.734946e-01	-5.552110e-02	0.0	5.594427e-01	-5.780995e-02	0.0	5.453111e-01	-6.002351e-02	0.0	5.311133e-01	-6.215372e-02	0.0	5.168783e-01	-6.428952e-02	0.0	5.025929e-01	-6.623289e-02	0.0	4.882996e-01	-6.817463e-02	0.0	4.740054e-01	-7.005111e-02	0.0	4.597252e-01	-7.185958e-02	0.0	4.454821e-01	-7.366263e-02	0.0	4.312827e-01	-7.539040e-02	0.0	4.171498e-01	-7.711005e-02	0.0	4.030841e-01	-7.869840e-02	0.0	3.891006e-01	-8.016516e-02	0.0	3.752240e-01	-8.159944e-02	0.0	3.614187e-01	-8.240555e-02	0.0	3.477482e-01	-8.320379e-02	0.0	3.342138e-01	-8.340816e-02	0.0	3.208289e-01	-8.312560e-02	0.0	3.076187e-01	-8.277843e-02	0.0	2.946747e-01	-8.121604e-02	0.0	2.819194e-01	-7.967641e-02	0.0	2.694280e-01	-7.772884e-02	0.0	2.571993e-01	-7.543664e-02	0.0	2.451819e-01	-7.318405e-02	0.0	2.334244e-01	-7.076048e-02	0.0	2.218915e-01	-6.837765e-02	0.0	2.105623e-01	-6.617374e-02	0.0	1.994298e-01	-6.421137e-02	0.0	1.885364e-01	-6.229114e-02	0.0	1.778407e-01	-6.069311e-02	0.0	1.673826e-01	-5.918755e-02	0.0	1.571751e-01	-5.770438e-02	0.0	1.472227e-01	-5.622366e-02	0.0	1.375215e-01	-5.478028e-02	0.0	1.281318e-01	-5.303001e-02	0.0	1.190125e-01	-5.120729e-02	0.0	1.101761e-01	-4.929220e-02	0.0	1.017148e-01	-4.689667e-02	0.0	9.349493e-02	-4.456945e-02	0.0	8.561787e-02	-4.198287e-02	0.0	7.802222e-02	-3.932328e-02	0.0	7.067551e-02	-3.669284e-02	0.0	6.362550e-02	-3.395323e-02	0.0	5.679658e-02	-3.129955e-02	0.0	5.019178e-02	-2.871387e-02	0.0	4.380173e-02	-2.620954e-02	0.0	3.762957e-02	-2.376735e-02	0.0	3.166539e-02	-2.140073e-02	0.0	2.597064e-02	-1.895020e-02	0.0	2.051765e-02	-1.648265e-02	0.0	1.538153e-02	-1.383061e-02	0.0	1.061400e-02	-1.094794e-02	0.0	6.206590e-03	-7.880685e-03	0.0	2.390421e-03	-4.366663e-03	0.0	
CELLS 198	594
2	25	26	2	26	27	2	27	28	2	28	29	2	29	30	2	30	31	2	31	32	2	32	33	2	33	34	2	34	35	2	35	36	2	36	37	2	37	38	2	38	39	2	39	40	2	40	41	2	41	42	2	42	43	2	43	44	2	44	45	2	45	46	2	46	47	2	47	48	2	48	49	2	49	50	2	50	51	2	51	52	2	52	53	2	53	54	2	54	55	2	55	56	2	56	57	2	57	58	2	58	59	2	59	60	2	60	61	2	61	62	2	62	63	2	63	64	2	64	65	2	65	66	2	66	67	2	67	68	2	68	69	2	69	70	2	70	71	2	71	72	2	72	73	2	73	74	2	74	75	2	75	76	2	76	77	2	77	78	2	78	79	2	79	80	2	80	81	2	81	82	2	82	83	2	83	84	2	84	85	2	85	86	2	86	87	2	87	88	2	88	89	2	89	90	2	90	91	2	91	92	2	92	93	2	93	94	2	94	95	2	95	96	2	96	97	2	97	98	2	98	99	2	99	100	2	100	101	2	101	102	2	102	103	2	103	104	2	104	105	2	105	106	2	106	107	2	107	108	2	108	109	2	109	110	2	110	111	2	111	112	2	112	113	2	113	114	2	114	115	2	115	116	2	116	117	2	117	118	2	118	119	2	119	120	2	120	121	2	121	122	2	122	123	2	123	124	2	124	125	2	125	126	2	126	127	2	127	128	2	128	129	2	129	130	2	130	131	2	131	132	2	132	133	2	133	134	2	134	135	2	135	136	2	136	137	2	137	138	2	138	139	2	139	140	2	140	141	2	141	142	2	142	143	2	143	144	2	144	145	2	145	146	2	146	147	2	147	148	2	148	149	2	149	150	2	150	151	2	151	152	2	152	153	2	153	154	2	154	155	2	155	156	2	156	157	2	157	158	2	158	159	2	159	160	2	0	1	2	1	2	2	2	3	2	3	4	2	4	5	2	5	6	2	6	7	2	7	8	2	8	9	2	9	10	2	10	11	2	11	12	2	12	13	2	13	14	2	14	15	2	15	16	2	16	17	2	17	18	2	18	19	2	19	20	2	20	21	2	21	22	2	22	23	2	23	24	2	24	25	2	160	161	2	161	162	2	162	163	2	163	164	2	164	165	2	165	166	2	166	167	2	167	168	2	168	169	2	169	170	2	170	171	2	171	172	2	172	173	2	173	174	2	174	175	2	175	176	2	176	177	2	177	178	2	178	179	2	179	180	2	180	181	2	181	182	2	182	183	2	183	184	2	184	185	2	185	186	2	186	187	2	187	188	2	188	189	2	189	190	2	190	191	2	191	192	2	192	193	2	193	194	2	194	195	2	195	196	2	196	197	2	197	0	
CELL_TYPES 198
3	3	3	3	3	3	3	3	3	3	3	3	3	3	3	3	3	3	3	3	3	3	3	3	3	3	3	3	3	3	3	3	3	3	3	3	3	3	3	3	3	3	3	3	3	3	3	3	3	3	3	3	3	3	3	3	3	3	3	3	3	3	3	3	3	3	3	3	3	3	3	3	3	3	3	3	3	3	3	3	3	3	3	3	3	3	3	3	3	3	3	3	3	3	3	3	3	3	3	3	3	3	3	3	3	3	3	3	3	3	3	3	3	3	3	3	3	3	3	3	3	3	3	3	3	3	3	3	3	3	3	3	3	3	3	3	3	3	3	3	3	3	3	3	3	3	3	3	3	3	3	3	3	3	3	3	3	3	3	3	3	3	3	3	3	3	3	3	3	3	3	3	3	3	3	3	3	3	3	3	3	3	3	3	3	3	3	3	3	3	3	3	3	3	3	3	3	3	
POINT_DATA 198

SCALARS Density double 1
LOOKUP_TABLE default
1.560377e+00	1.275932e+00	1.325025e+00	1.276091e+00	1.263488e+00	1.250623e+00	1.250451e+00	1.253385e+00	1.269849e+00	1.283030e+00	1.299314e+00	1.307515e+00	1.303153e+00	1.280406e+00	1.236864e+00	1.131426e+00	1.021613e+00	8.645102e-01	7.241593e-01	5.943240e-01	4.961257e-01	4.379341e-01	3.957570e-01	4.020971e-01	4.247534e-01	4.372238e-01	5.114222e-01	5.904351e-01	8.558864e-01	1.147398e+00	1.155635e+00	1.126155e+00	1.108175e+00	1.075223e+00	1.048362e+00	1.020419e+00	9.686917e-01	9.331872e-01	9.249095e-01	9.095174e-01	9.153941e-01	9.298676e-01	9.480713e-01	9.760954e-01	9.904522e-01	1.003827e+00	1.013387e+00	1.022039e+00	1.030804e+00	1.035103e+00	1.045993e+00	1.050436e+00	1.062493e+00	1.081166e+00	1.091525e+00	1.111819e+00	1.130965e+00	1.145237e+00	1.161185e+00	1.175586e+00	1.180879e+00	1.192972e+00	1.195492e+00	1.186358e+00	1.187372e+00	1.175875e+00	1.161756e+00	1.151188e+00	1.135310e+00	1.116865e+00	1.112367e+00	1.096663e+00	1.097873e+00	1.114513e+00	1.121908e+00	1.141596e+00	1.155983e+00	1.171083e+00	1.185793e+00	1.193757e+00	1.201987e+00	1.208666e+00	1.212587e+00	1.217742e+00	1.221735e+00	1.225246e+00	1.229154e+00	1.232918e+00	1.236369e+00	1.240736e+00	1.244530e+00	1.248670e+00	1.253027e+00	1.257384e+00	1.262270e+00	1.267209e+00	1.273468e+00	1.283003e+00	1.279538e+00	1.306022e+00	1.421574e+00	1.384059e+00	1.388827e+00	1.391767e+00	1.395594e+00	1.398190e+00	1.400681e+00	1.404451e+00	1.406892e+00	1.410478e+00	1.414378e+00	1.418286e+00	1.425900e+00	1.426514e+00	1.436701e+00	1.440435e+00	1.438260e+00	1.446163e+00	1.434043e+00	1.436584e+00	1.426770e+00	1.394243e+00	1.370508e+00	1.331287e+00	1.280870e+00	1.240021e+00	1.163906e+00	1.125730e+00	1.129044e+00	1.124676e+00	1.162242e+00	1.194539e+00	1.222877e+00	1.259383e+00	1.282169e+00	1.292242e+00	1.314136e+00	1.317900e+00	1.308119e+00	1.306253e+00	1.293411e+00	1.281193e+00	1.268965e+00	1.251801e+00	1.237002e+00	1.226091e+00	1.211496e+00	1.202650e+00	1.197545e+00	1.189790e+00	1.185966e+00	1.184243e+00	1.193775e+00	1.171265e+00	1.027764e+00	8.309245e-01	7.496652e-01	7.603476e-01	7.796925e-01	8.024075e-01	8.454222e-01	8.705186e-01	9.410098e-01	1.019148e+00	1.059365e+00	1.116540e+00	1.157007e+00	1.193188e+00	1.234140e+00	1.263447e+00	1.276623e+00	1.289914e+00	1.297234e+00	1.288037e+00	1.281311e+00	1.276329e+00	1.257076e+00	1.248011e+00	1.252120e+00	1.238563e+00	1.254909e+00	1.277610e+00	1.295697e+00	1.328421e+00	1.349427e+00	1.374160e+00	1.401607e+00	1.420162e+00	1.437593e+00	1.452539e+00	1.463258e+00	1.476543e+00	1.491069e+00	1.508558e+00	1.535915e+00	1.569627e+00	1.587096e+00	1.680460e+00	
VECTORS Momentum double
3.256271e+01	1.797559e+02	0.0	1.701032e+02	1.568529e+02	0.0	2.037974e+02	1.596238e+02	0.0	2.294343e+02	1.488838e+02	0.0	2.477869e+02	1.409258e+02	0.0	2.598987e+02	1.300433e+02	0.0	2.683449e+02	1.214030e+02	0.0	2.712974e+02	1.115764e+02	0.0	2.720047e+02	1.063178e+02	0.0	2.696438e+02	1.023100e+02	0.0	2.657199e+02	1.034092e+02	0.0	2.623765e+02	1.088723e+02	0.0	2.615477e+02	1.183265e+02	0.0	2.652129e+02	1.302005e+02	0.0	2.763057e+02	1.452563e+02	0.0	2.896508e+02	1.412115e+02	0.0	3.014071e+02	1.292095e+02	0.0	3.023925e+02	9.457793e+01	0.0	2.900952e+02	5.643892e+01	0.0	2.635952e+02	2.076146e+01	0.0	2.330278e+02	-5.641728e+00	0.0	2.142008e+02	-1.901507e+01	0.0	1.961023e+02	-2.898414e+01	0.0	1.987156e+02	-2.952072e+01	0.0	2.090212e+02	-2.850637e+01	0.0	2.119290e+02	-2.807498e+01	0.0	2.388922e+02	-1.613457e+01	0.0	2.563490e+02	-8.933663e+00	0.0	2.929392e+02	2.678773e+00	0.0	2.888732e+02	2.447210e+01	0.0	2.872092e+02	3.178808e+01	0.0	2.877033e+02	3.920611e+01	0.0	2.889123e+02	4.755214e+01	0.0	2.896173e+02	4.645415e+01	0.0	2.912862e+02	4.448755e+01	0.0	2.944447e+02	4.428711e+01	0.0	2.939804e+02	3.513591e+01	0.0	2.905624e+02	2.451507e+01	0.0	2.910407e+02	1.998983e+01	0.0	2.894538e+02	1.119035e+01	0.0	2.886787e+02	5.797088e+00	0.0	2.882010e+02	9.299392e-01	0.0	2.858132e+02	-4.307300e+00	0.0	2.844797e+02	-5.671417e+00	0.0	2.823927e+02	-8.091519e+00	0.0	2.809324e+02	-9.568503e+00	0.0	2.791748e+02	-1.115655e+01	0.0	2.777605e+02	-1.278547e+01	0.0	2.769008e+02	-1.407756e+01	0.0	2.746433e+02	-1.694098e+01	0.0	2.742020e+02	-1.836547e+01	0.0	2.720098e+02	-2.236131e+01	0.0	2.686006e+02	-2.631274e+01	0.0	2.660148e+02	-2.807582e+01	0.0	2.612229e+02	-3.180494e+01	0.0	2.560958e+02	-3.331832e+01	0.0	2.516638e+02	-3.320074e+01	0.0	2.466454e+02	-3.312008e+01	0.0	2.413846e+02	-3.085735e+01	0.0	2.383622e+02	-2.685824e+01	0.0	2.338893e+02	-2.465969e+01	0.0	2.313036e+02	-1.798483e+01	0.0	2.325443e+02	-1.083095e+01	0.0	2.324534e+02	-8.163060e+00	0.0	2.343098e+02	-2.398161e+00	0.0	2.378153e+02	1.217637e+00	0.0	2.412053e+02	2.009324e+00	0.0	2.453720e+02	3.200021e+00	0.0	2.503102e+02	1.644266e+00	0.0	2.526645e+02	-3.740871e+00	0.0	2.571898e+02	-6.661590e+00	0.0	2.580247e+02	-1.628824e+01	0.0	2.547480e+02	-2.589258e+01	0.0	2.524522e+02	-3.115158e+01	0.0	2.472723e+02	-3.829262e+01	0.0	2.423822e+02	-4.123238e+01	0.0	2.369352e+02	-4.391944e+01	0.0	2.312389e+02	-4.455008e+01	0.0	2.268780e+02	-4.320192e+01	0.0	2.232355e+02	-4.230918e+01	0.0	2.200992e+02	-4.084514e+01	0.0	2.179295e+02	-3.938364e+01	0.0	2.156752e+02	-3.868713e+01	0.0	2.137042e+02	-3.787801e+01	0.0	2.119239e+02	-3.724796e+01	0.0	2.100250e+02	-3.702735e+01	0.0	2.080902e+02	-3.684326e+01	0.0	2.062360e+02	-3.672924e+01	0.0	2.041463e+02	-3.687974e+01	0.0	2.020317e+02	-3.679759e+01	0.0	1.997569e+02	-3.686821e+01	0.0	1.973775e+02	-3.693137e+01	0.0	1.948876e+02	-3.683457e+01	0.0	1.922413e+02	-3.677184e+01	0.0	1.893233e+02	-3.662441e+01	0.0	1.858750e+02	-3.648037e+01	0.0	1.820195e+02	-3.610159e+01	0.0	1.771025e+02	-3.562869e+01	0.0	1.660131e+02	-3.501060e+01	0.0	1.925258e+02	-6.002947e+00	0.0	2.813960e+02	-1.474170e+01	0.0	2.607387e+02	-8.658703e+00	0.0	2.599805e+02	-6.217127e+00	0.0	2.578772e+02	-4.226006e+00	0.0	2.571253e+02	-2.359480e+00	0.0	2.557002e+02	-4.965786e-01	0.0	2.543644e+02	1.334917e+00	0.0	2.528967e+02	2.838703e+00	0.0	2.512718e+02	4.839581e+00	0.0	2.499224e+02	6.467869e+00	0.0	2.482049e+02	8.268835e+00	0.0	2.461580e+02	1.032454e+01	0.0	2.435675e+02	1.228279e+01	0.0	2.409390e+02	1.678188e+01	0.0	2.383061e+02	1.914276e+01	0.0	2.339823e+02	2.600903e+01	0.0	2.323409e+02	3.355350e+01	0.0	2.310294e+02	3.886585e+01	0.0	2.295181e+02	5.053119e+01	0.0	2.323654e+02	5.755237e+01	0.0	2.323119e+02	6.914428e+01	0.0	2.384588e+02	8.316167e+01	0.0	2.512792e+02	8.912298e+01	0.0	2.609472e+02	9.486623e+01	0.0	2.740813e+02	9.742941e+01	0.0	2.887611e+02	9.091789e+01	0.0	2.985387e+02	8.635445e+01	0.0	3.132858e+02	6.998337e+01	0.0	3.197367e+02	5.044404e+01	0.0	3.163494e+02	4.013086e+01	0.0	3.183125e+02	2.493469e+01	0.0	3.134215e+02	1.754198e+01	0.0	3.088230e+02	1.336004e+01	0.0	3.040769e+02	9.741332e+00	0.0	2.971540e+02	1.255351e+01	0.0	2.927580e+02	1.721657e+01	0.0	2.900665e+02	1.903488e+01	0.0	2.855056e+02	2.686232e+01	0.0	2.860772e+02	3.465657e+01	0.0	2.884605e+02	3.741857e+01	0.0	2.894368e+02	4.255803e+01	0.0	2.922255e+02	4.531709e+01	0.0	2.949387e+02	4.691254e+01	0.0	2.975632e+02	4.852381e+01	0.0	3.012859e+02	4.804967e+01	0.0	3.040918e+02	4.654117e+01	0.0	3.057814e+02	4.594174e+01	0.0	3.079109e+02	4.410846e+01	0.0	3.089631e+02	4.207021e+01	0.0	3.092830e+02	4.137318e+01	0.0	3.102355e+02	4.002391e+01	0.0	3.098885e+02	3.938865e+01	0.0	3.100890e+02	3.856198e+01	0.0	3.116674e+02	3.687532e+01	0.0	3.148754e+02	3.662681e+01	0.0	3.091845e+02	3.553821e+01	0.0	2.979986e+02	3.164937e+01	0.0	3.068789e+02	2.485571e+01	0.0	3.086072e+02	1.827840e+01	0.0	3.118444e+02	1.145457e+01	0.0	3.195992e+02	-7.455473e-01	0.0	3.208699e+02	-7.701245e+00	0.0	3.298172e+02	-2.537055e+01	0.0	3.329156e+02	-4.100829e+01	0.0	3.300158e+02	-4.610846e+01	0.0	3.302560e+02	-5.728832e+01	0.0	3.244507e+02	-6.079450e+01	0.0	3.208424e+02	-6.307618e+01	0.0	3.162308e+02	-6.536592e+01	0.0	3.107282e+02	-6.223731e+01	0.0	3.077142e+02	-5.697425e+01	0.0	3.064082e+02	-5.406440e+01	0.0	3.055362e+02	-4.983572e+01	0.0	3.063118e+02	-4.485317e+01	0.0	3.085255e+02	-4.467018e+01	0.0	3.101087e+02	-4.574173e+01	0.0	3.114863e+02	-4.633350e+01	0.0	3.130536e+02	-5.249384e+01	0.0	3.123115e+02	-6.048457e+01	0.0	3.097728e+02	-6.422838e+01	0.0	3.081171e+02	-7.702146e+01	0.0	3.009840e+02	-8.529854e+01	0.0	2.936599e+02	-8.987548e+01	0.0	2.854915e+02	-9.709433e+01	0.0	2.767268e+02	-9.800491e+01	0.0	2.684588e+02	-1.002113e+02	0.0	2.589970e+02	-1.008299e+02	0.0	2.501299e+02	-9.747861e+01	0.0	2.426684e+02	-9.500610e+01	0.0	2.350982e+02	-9.246160e+01	0.0	2.281429e+02	-9.024399e+01	0.0	2.195201e+02	-9.073594e+01	0.0	2.080834e+02	-9.179684e+01	0.0	1.930681e+02	-9.331012e+01	0.0	1.689171e+02	-9.436799e+01	0.0	1.340239e+02	-8.640193e+01	0.0	8.807245e+01	-6.705244e+01	0.0	6.867589e+00	-4.010406e+00	0.0	
SCALARS Energy double 1
LOOKUP_TABLE default
3.414401e+05	2.826940e+05	2.945711e+05	2.851087e+05	2.831888e+05	2.808588e+05	2.810845e+05	2.816182e+05	2.849757e+05	2.875000e+05	2.907093e+05	2.923655e+05	2.916369e+05	2.874092e+05	2.794823e+05	2.584730e+05	2.365861e+05	2.040669e+05	1.742718e+05	1.456907e+05	1.232355e+05	1.100558e+05	1.000091e+05	1.015380e+05	1.070799e+05	1.097493e+05	1.269216e+05	1.439615e+05	1.999328e+05	2.592901e+05	2.609341e+05	2.549141e+05	2.513718e+05	2.446048e+05	2.391803e+05	2.337011e+05	2.229988e+05	2.153883e+05	2.137216e+05	2.104183e+05	2.115239e+05	2.144127e+05	2.179115e+05	2.235261e+05	2.263019e+05	2.289357e+05	2.307685e+05	2.324470e+05	2.341946e+05	2.349232e+05	2.371497e+05	2.379289e+05	2.402068e+05	2.439169e+05	2.457723e+05	2.496798e+05	2.534014e+05	2.560824e+05	2.591011e+05	2.619307e+05	2.627780e+05	2.651545e+05	2.657315e+05	2.637893e+05	2.641006e+05	2.618725e+05	2.590941e+05	2.571206e+05	2.540887e+05	2.503719e+05	2.497296e+05	2.465305e+05	2.466175e+05	2.499878e+05	2.512704e+05	2.551321e+05	2.578635e+05	2.607271e+05	2.635782e+05	2.650571e+05	2.666198e+05	2.679091e+05	2.686192e+05	2.696067e+05	2.703603e+05	2.710110e+05	2.717459e+05	2.724563e+05	2.730928e+05	2.739228e+05	2.746264e+05	2.754008e+05	2.762175e+05	2.770299e+05	2.779454e+05	2.788530e+05	2.800283e+05	2.818670e+05	2.806957e+05	2.872834e+05	3.162631e+05	3.071733e+05	3.081387e+05	3.086477e+05	3.094180e+05	3.098932e+05	3.103521e+05	3.110768e+05	3.115134e+05	3.122081e+05	3.129527e+05	3.136849e+05	3.151808e+05	3.151968e+05	3.172476e+05	3.178708e+05	3.173760e+05	3.190381e+05	3.164901e+05	3.172377e+05	3.152930e+05	3.088918e+05	3.046192e+05	2.969767e+05	2.872077e+05	2.794707e+05	2.642602e+05	2.572035e+05	2.581029e+05	2.568147e+05	2.645753e+05	2.708335e+05	2.763564e+05	2.836103e+05	2.879083e+05	2.897444e+05	2.941707e+05	2.947151e+05	2.927487e+05	2.925285e+05	2.899431e+05	2.875916e+05	2.852297e+05	2.818402e+05	2.790072e+05	2.769179e+05	2.740007e+05	2.723008e+05	2.712993e+05	2.697099e+05	2.689762e+05	2.685875e+05	2.705679e+05	2.660150e+05	2.368496e+05	1.968474e+05	1.796864e+05	1.826997e+05	1.865959e+05	1.913476e+05	2.005991e+05	2.056871e+05	2.206801e+05	2.367850e+05	2.447084e+05	2.565088e+05	2.643635e+05	2.715569e+05	2.797070e+05	2.853474e+05	2.878088e+05	2.904535e+05	2.918732e+05	2.899545e+05	2.887015e+05	2.877839e+05	2.838807e+05	2.821784e+05	2.830817e+05	2.801398e+05	2.836234e+05	2.880068e+05	2.913846e+05	2.978615e+05	3.017618e+05	3.065380e+05	3.118271e+05	3.152270e+05	3.185065e+05	3.212757e+05	3.232001e+05	3.256633e+05	3.283105e+05	3.315018e+05	3.365622e+05	3.427050e+05	3.452821e+05	3.644316e+05	
SCALARS Pressure double 1
LOOKUP_TABLE default
1.322985e+05	1.046856e+05	1.077134e+05	1.023192e+05	1.004130e+05	9.883687e+04	9.855918e+04	9.891620e+04	1.005572e+05	1.020346e+05	1.037693e+05	1.046030e+05	1.040072e+05	1.013289e+05	9.603626e+04	8.503388e+04	7.358119e+04	5.840294e+04	4.558680e+04	3.474923e+04	2.739095e+04	2.290335e+04	2.014487e+04	2.054078e+04	2.187748e+04	2.299414e+04	2.834889e+04	3.529776e+04	5.991891e+04	8.906608e+04	8.992276e+04	8.699253e+04	8.507616e+04	8.183849e+04	7.910784e+04	7.610345e+04	7.110110e+04	6.793229e+04	6.708589e+04	6.571604e+04	6.639465e+04	6.790003e+04	6.992798e+04	7.282171e+04	7.440466e+04	7.583161e+04	7.690105e+04	7.784937e+04	7.876283e+04	7.933963e+04	8.041926e+04	8.098897e+04	8.237181e+04	8.433067e+04	8.562043e+04	8.787443e+04	8.996554e+04	9.161758e+04	9.344073e+04	9.498347e+04	9.574322e+04	9.703814e+04	9.722617e+04	9.639518e+04	9.639176e+04	9.512933e+04	9.362107e+04	9.238640e+04	9.059744e+04	8.871436e+04	8.799093e+04	8.642211e+04	8.670264e+04	8.838420e+04	8.934683e+04	9.146255e+04	9.309903e+04	9.481992e+04	9.643476e+04	9.737382e+04	9.830974e+04	9.904820e+04	9.952867e+04	1.001063e+05	1.005649e+05	1.009803e+05	1.014318e+05	1.018641e+05	1.022755e+05	1.027714e+05	1.032196e+05	1.037020e+05	1.042082e+05	1.047185e+05	1.052864e+05	1.058783e+05	1.066033e+05	1.076595e+05	1.077788e+05	1.092317e+05	1.153344e+05	1.130345e+05	1.135165e+05	1.139002e+05	1.142918e+05	1.146048e+05	1.149020e+05	1.153219e+05	1.156266e+05	1.160206e+05	1.164601e+05	1.169143e+05	1.177301e+05	1.179003e+05	1.189424e+05	1.194529e+05	1.192872e+05	1.200248e+05	1.188931e+05	1.189170e+05	1.178819e+05	1.144079e+05	1.114743e+05	1.072090e+05	1.016712e+05	9.700642e+04	8.910780e+04	8.457406e+04	8.468099e+04	8.464291e+04	8.828739e+04	9.183487e+04	9.491544e+04	9.874524e+04	1.013651e+05	1.025870e+05	1.048080e+05	1.054063e+05	1.044032e+05	1.040569e+05	1.027433e+05	1.013854e+05	1.000348e+05	9.821326e+04	9.655325e+04	9.532981e+04	9.381599e+04	9.283008e+04	9.228182e+04	9.151676e+04	9.108949e+04	9.095487e+04	9.186858e+04	8.958720e+04	7.518514e+04	5.542566e+04	4.791592e+04	4.814590e+04	5.012292e+04	5.226756e+04	5.607557e+04	5.860693e+04	6.501551e+04	7.263390e+04	7.692056e+04	8.247867e+04	8.690986e+04	9.070126e+04	9.498447e+04	9.824188e+04	9.978083e+04	1.011713e+05	1.019738e+05	1.011004e+05	1.003112e+05	9.971633e+04	9.777433e+04	9.672434e+04	9.706858e+04	9.589452e+04	9.737354e+04	9.988236e+04	1.019959e+05	1.054543e+05	1.079315e+05	1.106643e+05	1.137083e+05	1.159417e+05	1.179543e+05	1.197229e+05	1.210528e+05	1.226229e+05	1.243862e+05	1.265045e+05	1.297498e+05	1.338420e+05	1.365688e+05	1.457651e+05	
SCALARS Temperature double 1
LOOKUP_TABLE default
2.953629e+02	2.858183e+02	2.831889e+02	2.793224e+02	2.768528e+02	2.753107e+02	2.745748e+02	2.749244e+02	2.758617e+02	2.770391e+02	2.782180e+02	2.786941e+02	2.780344e+02	2.756869e+02	2.704852e+02	2.618161e+02	2.509057e+02	2.353396e+02	2.192984e+02	2.036818e+02	1.923294e+02	1.821883e+02	1.773235e+02	1.779575e+02	1.794282e+02	1.832077e+02	1.931020e+02	2.082598e+02	2.438811e+02	2.704136e+02	2.710687e+02	2.691003e+02	2.674421e+02	2.651488e+02	2.628686e+02	2.598103e+02	2.556943e+02	2.535933e+02	2.526750e+02	2.517044e+02	2.526710e+02	2.543778e+02	2.569451e+02	2.598956e+02	2.616959e+02	2.631611e+02	2.643549e+02	2.653494e+02	2.661802e+02	2.670158e+02	2.678315e+02	2.685881e+02	2.700740e+02	2.717213e+02	2.732588e+02	2.753333e+02	2.771133e+02	2.786852e+02	2.803272e+02	2.814647e+02	2.824443e+02	2.833626e+02	2.833133e+02	2.830545e+02	2.828027e+02	2.818277e+02	2.807302e+02	2.795709e+02	2.779917e+02	2.767091e+02	2.755625e+02	2.745252e+02	2.751126e+02	2.762612e+02	2.774293e+02	2.791008e+02	2.805589e+02	2.820605e+02	2.833056e+02	2.841559e+02	2.849228e+02	2.854767e+02	2.859339e+02	2.863760e+02	2.867475e+02	2.871070e+02	2.874736e+02	2.878176e+02	2.881732e+02	2.885513e+02	2.889263e+02	2.893142e+02	2.897154e+02	2.901256e+02	2.905699e+02	2.910645e+02	2.916172e+02	2.923178e+02	2.934341e+02	2.913591e+02	2.826309e+02	2.845029e+02	2.847353e+02	2.850942e+02	2.852898e+02	2.855399e+02	2.857715e+02	2.860457e+02	2.863038e+02	2.865491e+02	2.868414e+02	2.871667e+02	2.876263e+02	2.879183e+02	2.884037e+02	2.888905e+02	2.889263e+02	2.891239e+02	2.888183e+02	2.883654e+02	2.878216e+02	2.858563e+02	2.833502e+02	2.805368e+02	2.765181e+02	2.725220e+02	2.667032e+02	2.617178e+02	2.612795e+02	2.621763e+02	2.646260e+02	2.678167e+02	2.703862e+02	2.731420e+02	2.754061e+02	2.765534e+02	2.778334e+02	2.786215e+02	2.780333e+02	2.775069e+02	2.767243e+02	2.756711e+02	2.746198e+02	2.733161e+02	2.719110e+02	2.708547e+02	2.697647e+02	2.688932e+02	2.684445e+02	2.679542e+02	2.675631e+02	2.675566e+02	2.680865e+02	2.664534e+02	2.548407e+02	2.323698e+02	2.226603e+02	2.205857e+02	2.239460e+02	2.269173e+02	2.310630e+02	2.345316e+02	2.406873e+02	2.482746e+02	2.529455e+02	2.573343e+02	2.616758e+02	2.648103e+02	2.681134e+02	2.708756e+02	2.722794e+02	2.732290e+02	2.738425e+02	2.734356e+02	2.727253e+02	2.721661e+02	2.709527e+02	2.699901e+02	2.700618e+02	2.697156e+02	2.703082e+02	2.723459e+02	2.742265e+02	2.765404e+02	2.786308e+02	2.805437e+02	2.826157e+02	2.844016e+02	2.858303e+02	2.871307e+02	2.881935e+02	2.893049e+02	2.906060e+02	2.921288e+02	2.942862e+02	2.970479e+02	2.997633e+02	3.021730e+02	
SCALARS Mach double 1
LOOKUP_TABLE default
3.398116e-01	5.350687e-01	5.791206e-01	6.397148e-01	6.763782e-01	6.986109e-01	7.090600e-01	7.041083e-01	6.907207e-01	6.736599e-01	6.562828e-01	6.491766e-01	6.590103e-01	6.932306e-01	7.654828e-01	8.780227e-01	1.010874e+00	1.191710e+00	1.374698e+00	1.555006e+00	1.689941e+00	1.814712e+00	1.876354e+00	1.868247e+00	1.849528e+00	1.801954e+00	1.680616e+00	1.501660e+00	1.093306e+00	7.664482e-01	7.575880e-01	7.840363e-01	8.059314e-01	8.356965e-01	8.647640e-01	9.030380e-01	9.534619e-01	9.787983e-01	9.897979e-01	1.001379e+00	9.898462e-01	9.693669e-01	9.382566e-01	9.019800e-01	8.795304e-01	8.610630e-01	8.458727e-01	8.331147e-01	8.223793e-01	8.115079e-01	8.008186e-01	7.908343e-01	7.710181e-01	7.487009e-01	7.275068e-01	6.982884e-01	6.725750e-01	6.493106e-01	6.243766e-01	6.066829e-01	5.911396e-01	5.762897e-01	5.770950e-01	5.813048e-01	5.853773e-01	6.009576e-01	6.181498e-01	6.359467e-01	6.596426e-01	6.784697e-01	6.950122e-01	7.097606e-01	7.014332e-01	6.849625e-01	6.679430e-01	6.430629e-01	6.208020e-01	5.972651e-01	5.772201e-01	5.632269e-01	5.503750e-01	5.409463e-01	5.330678e-01	5.253606e-01	5.188131e-01	5.124169e-01	5.058249e-01	4.995778e-01	4.930503e-01	4.860338e-01	4.789914e-01	4.716161e-01	4.638855e-01	4.558690e-01	4.470496e-01	4.370557e-01	4.256505e-01	4.108049e-01	3.861303e-01	4.310092e-01	5.881458e-01	5.574398e-01	5.535379e-01	5.474716e-01	5.441418e-01	5.398629e-01	5.358767e-01	5.311260e-01	5.266246e-01	5.223189e-01	5.171492e-01	5.113472e-01	5.030586e-01	4.977355e-01	4.887831e-01	4.796677e-01	4.789919e-01	4.752468e-01	4.810295e-01	4.894950e-01	4.995035e-01	5.344114e-01	5.764933e-01	6.211440e-01	6.812446e-01	7.377090e-01	8.155834e-01	8.792557e-01	8.847464e-01	8.734953e-01	8.424042e-01	8.010137e-01	7.668174e-01	7.291301e-01	6.972487e-01	6.807323e-01	6.619868e-01	6.502641e-01	6.590258e-01	6.668018e-01	6.782496e-01	6.934567e-01	7.084232e-01	7.267105e-01	7.461053e-01	7.604889e-01	7.751663e-01	7.867884e-01	7.927347e-01	7.992046e-01	8.043437e-01	8.044299e-01	7.974620e-01	8.188334e-01	9.637855e-01	1.225653e+00	1.336325e+00	1.359994e+00	1.321669e+00	1.287814e+00	1.240564e+00	1.200954e+00	1.130277e+00	1.041962e+00	9.865624e-01	9.335046e-01	8.797830e-01	8.400425e-01	7.971072e-01	7.602058e-01	7.410509e-01	7.279218e-01	7.193609e-01	7.250464e-01	7.349031e-01	7.426073e-01	7.591611e-01	7.721453e-01	7.711826e-01	7.758243e-01	7.678689e-01	7.401352e-01	7.139708e-01	6.809199e-01	6.501255e-01	6.210378e-01	5.883894e-01	5.591336e-01	5.348612e-01	5.119916e-01	4.926764e-01	4.717933e-01	4.463266e-01	4.148549e-01	3.663171e-01	2.940323e-01	2.009445e-01	1.358049e-02	
SCALARS Pressure_Coefficient double 1
LOOKUP_TABLE default