# vtk DataFile Version 3.0
vtk output
ASCII
DATASET UNSTRUCTURED_GRID
POINTS 1838 double
1.000000e+02	0.000000e+00	0.0	9.917900e+01	1.278772e+01	0.0	9.672949e+01	2.536546e+01	0.0	9.269168e+01	3.752670e+01	0.0	8.713187e+01	4.907176e+01	0.0	8.014136e+01	5.981105e+01	0.0	7.183494e+01	6.956826e+01	0.0	6.234898e+01	7.818315e+01	0.0	5.183926e+01	8.551428e+01	0.0	4.047833e+01	9.144126e+01	0.0	2.845276e+01	9.586679e+01	0.0	1.595999e+01	9.871818e+01	0.0	3.205158e+00	9.994862e+01	0.0	-9.602303e+00	9.953791e+01	0.0	-2.225209e+01	9.749279e+01	0.0	-3.453651e+01	9.384684e+01	0.0	-4.625383e+01	8.865993e+01	0.0	-5.721167e+01	8.201723e+01	0.0	-6.723009e+01	7.402780e+01	0.0	-7.614460e+01	6.482284e+01	0.0	-8.380881e+01	5.455349e+01	0.0	-9.009689e+01	4.338837e+01	0.0	-9.490557e+01	3.151082e+01	0.0	-9.815592e+01	1.911586e+01	0.0	-9.979454e+01	6.407022e+00	0.0	-9.979454e+01	-6.407022e+00	0.0	-9.815592e+01	-1.911586e+01	0.0	-9.490557e+01	-3.151082e+01	0.0	-9.009689e+01	-4.338837e+01	0.0	-8.380881e+01	-5.455349e+01	0.0	-7.614460e+01	-6.482284e+01	0.0	-6.723009e+01	-7.402780e+01	0.0	-5.721167e+01	-8.201723e+01	0.0	-4.625383e+01	-8.865993e+01	0.0	-3.453651e+01	-9.384684e+01	0.0	-2.225209e+01	-9.749279e+01	0.0	-9.602303e+00	-9.953791e+01	0.0	3.205158e+00	-9.994862e+01	0.0	1.595999e+01	-9.871818e+01	0.0	2.845276e+01	-9.586679e+01	0.0	4.047833e+01	-9.144126e+01	0.0	5.183926e+01	-8.551428e+01	0.0	6.234898e+01	-7.818315e+01	0.0	7.183494e+01	-6.956826e+01	0.0	8.014136e+01	-5.981105e+01	0.0	8.713187e+01	-4.907176e+01	0.0	9.269168e+01	-3.752670e+01	0.0	9.672949e+01	-2.536546e+01	0.0	9.917900e+01	-1.278772e+01	0.0	0.000000e+00	0.000000e+00	0.0	3.363995e-03	3.699127e-03	0.0	6.991352e-03	7.373321e-03	0.0	1.149827e-02	1.030560e-02	0.0	1.625566e-02	1.318896e-02	0.0	2.148651e-02	1.563164e-02	0.0	2.694054e-02	1.807395e-02	0.0	3.270878e-02	2.031454e-02	0.0	3.869838e-02	2.257410e-02	0.0	4.495020e-02	2.475430e-02	0.0	5.143442e-02	2.694204e-02	0.0	5.816850e-02	2.909769e-02	0.0	6.514537e-02	3.124882e-02	0.0	7.236262e-02	3.341511e-02	0.0	7.985559e-02	3.548041e-02	0.0	8.761133e-02	3.748433e-02	0.0	9.569757e-02	3.914941e-02	0.0	1.040775e-01	4.053536e-02	0.0	1.127624e-01	4.158519e-02	0.0	1.217258e-01	4.227608e-02	0.0	1.309635e-01	4.267221e-02	0.0	1.404542e-01	4.295214e-02	0.0	1.502002e-01	4.302561e-02	0.0	1.601959e-01	4.310097e-02	0.0	1.704397e-01	4.321820e-02	0.0	1.809305e-01	4.333931e-02	0.0	1.916615e-01	4.362054e-02	0.0	2.026291e-01	4.409923e-02	0.0	2.138348e-01	4.458831e-02	0.0	2.252496e-01	4.548133e-02	0.0	2.368900e-01	4.644094e-02	0.0	2.487464e-01	4.749622e-02	0.0	2.608045e-01	4.873353e-02	0.0	2.730723e-01	4.999236e-02	0.0	2.855401e-01	5.129190e-02	0.0	2.982012e-01	5.261793e-02	0.0	3.110504e-01	5.393250e-02	0.0	3.240866e-01	5.514994e-02	0.0	3.372884e-01	5.638284e-02	0.0	3.506535e-01	5.753206e-02	0.0	3.641663e-01	5.864659e-02	0.0	3.778120e-01	5.975762e-02	0.0	3.915831e-01	6.080000e-02	0.0	4.054607e-01	6.185043e-02	0.0	4.194337e-01	6.287622e-02	0.0	4.334876e-01	6.389031e-02	0.0	4.476085e-01	6.488556e-02	0.0	4.617901e-01	6.573982e-02	0.0	4.760086e-01	6.659629e-02	0.0	4.902619e-01	6.716907e-02	0.0	5.045296e-01	6.758316e-02	0.0	5.187904e-01	6.788923e-02	0.0	5.330310e-01	6.757250e-02	0.0	5.472349e-01	6.725658e-02	0.0	5.613573e-01	6.637430e-02	0.0	5.753980e-01	6.519258e-02	0.0	5.893506e-01	6.393471e-02	0.0	6.031568e-01	6.217942e-02	0.0	6.168570e-01	6.043760e-02	0.0	6.304184e-01	5.856338e-02	0.0	6.438361e-01	5.661312e-02	0.0	6.571119e-01	5.468800e-02	0.0	6.702437e-01	5.285448e-02	0.0	6.832108e-01	5.104395e-02	0.0	6.960118e-01	4.932240e-02	0.0	7.086370e-01	4.768981e-02	0.0	7.210689e-01	4.608221e-02	0.0	7.333025e-01	4.452560e-02	0.0	7.453271e-01	4.299685e-02	0.0	7.571306e-01	4.145591e-02	0.0	7.687059e-01	3.989611e-02	0.0	7.800529e-01	3.835976e-02	0.0	7.911457e-01	3.669957e-02	0.0	8.020027e-01	3.507466e-02	0.0	8.126055e-01	3.338849e-02	0.0	8.229615e-01	3.170808e-02	0.0	8.330680e-01	3.003251e-02	0.0	8.429235e-01	2.836305e-02	0.0	8.525326e-01	2.673310e-02	0.0	8.618938e-01	2.513740e-02	0.0	8.710084e-01	2.358371e-02	0.0	8.798767e-01	2.206930e-02	0.0	8.884999e-01	2.059621e-02	0.0	8.968786e-01	1.915900e-02	0.0	9.050139e-01	1.775303e-02	0.0	9.129098e-01	1.638842e-02	0.0	9.205645e-01	1.503928e-02	0.0	9.279846e-01	1.372648e-02	0.0	9.351717e-01	1.244077e-02	0.0	9.421277e-01	1.117246e-02	0.0	9.488605e-01	9.944181e-03	0.0	9.553684e-01	8.725037e-03	0.0	9.616613e-01	7.546153e-03	0.0	9.677396e-01	6.385419e-03	0.0	9.736111e-01	5.260378e-03	0.0	9.792777e-01	4.156639e-03	0.0	9.847461e-01	3.084582e-03	0.0	9.900202e-01	2.038057e-03	0.0	9.951037e-01	1.012552e-03	0.0	1.000000e+00	0.000000e+00	0.0	9.950043e-01	2.069132e-04	0.0	9.898199e-01	4.003136e-04	0.0	9.844407e-01	5.458861e-04	0.0	9.788625e-01	6.485308e-04	0.0	9.730808e-01	7.276120e-04	0.0	9.670907e-01	7.502665e-04	0.0	9.608879e-01	7.501604e-04	0.0	9.544680e-01	6.850363e-04	0.0	9.478266e-01	6.035236e-04	0.0	9.409607e-01	4.259646e-04	0.0	9.338645e-01	2.424505e-04	0.0	9.265378e-01	-5.446511e-05	0.0	9.189742e-01	-3.850368e-04	0.0	9.111754e-01	-8.258863e-04	0.0	9.031425e-01	-1.445432e-03	0.0	8.948630e-01	-2.083994e-03	0.0	8.863816e-01	-3.182861e-03	0.0	8.776564e-01	-4.369896e-03	0.0	8.687360e-01	-5.903137e-03	0.0	8.596433e-01	-7.918484e-03	0.0	8.503042e-01	-9.999313e-03	0.0	8.409272e-01	-1.292850e-02	0.0	8.313068e-01	-1.593369e-02	0.0	8.214981e-01	-1.918008e-02	0.0	8.114767e-01	-2.258868e-02	0.0	8.011773e-01	-2.594904e-02	0.0	7.905615e-01	-2.913234e-02	0.0	7.797121e-01	-3.238570e-02	0.0	7.684044e-01	-3.481629e-02	0.0	7.568638e-01	-3.728376e-02	0.0	7.450156e-01	-3.933016e-02	0.0	7.328843e-01	-4.105837e-02	0.0	7.205338e-01	-4.277403e-02	0.0	7.079233e-01	-4.408367e-02	0.0	6.951140e-01	-4.541396e-02	0.0	6.821051e-01	-4.666477e-02	0.0	6.689088e-01	-4.785959e-02	0.0	6.555424e-01	-4.906826e-02	0.0	6.420147e-01	-5.026625e-02	0.0	6.283397e-01	-5.147728e-02	0.0	6.145240e-01	-5.263636e-02	0.0	6.005815e-01	-5.375377e-02	0.0	5.865285e-01	-5.486583e-02	0.0	5.723645e-01	-5.577181e-02	0.0	5.581187e-01	-5.668303e-02	0.0	5.437962e-01	-5.742240e-02	0.0	5.294142e-01	-5.803918e-02	0.0	5.149938e-01	-5.863929e-02	0.0	5.005454e-01	-5.910257e-02	0.0	4.860894e-01	-5.956609e-02	0.0	4.716424e-01	-6.007123e-02	0.0	4.572190e-01	-6.059760e-02	0.0	4.428358e-01	-6.117593e-02	0.0	4.285156e-01	-6.197316e-02	0.0	4.142628e-01	-6.276665e-02	0.0	4.001028e-01	-6.372854e-02	0.0	3.860428e-01	-6.474782e-02	0.0	3.720910e-01	-6.574383e-02	0.0	3.582588e-01	-6.668716e-02	0.0	3.445621e-01	-6.762125e-02	0.0	3.309971e-01	-6.825401e-02	0.0	3.175872e-01	-6.879822e-02	0.0	3.043446e-01	-6.916947e-02	0.0	2.912754e-01	-6.915144e-02	0.0	2.783972e-01	-6.913367e-02	0.0	2.657214e-01	-6.890463e-02	0.0	2.532546e-01	-6.863128e-02	0.0	2.410030e-01	-6.840557e-02	0.0	2.289730e-01	-6.827472e-02	0.0	2.171724e-01	-6.814637e-02	0.0	2.056106e-01	-6.841942e-02	0.0	1.942895e-01	-6.877346e-02	0.0	1.832139e-01	-6.916819e-02	0.0	1.723895e-01	-6.965545e-02	0.0	1.618150e-01	-7.013147e-02	0.0	1.514861e-01	-7.002947e-02	0.0	1.414096e-01	-6.981305e-02	0.0	1.316468e-01	-6.903715e-02	0.0	1.222431e-01	-6.726849e-02	0.0	1.130902e-01	-6.554699e-02	0.0	1.046606e-01	-6.228970e-02	0.0	9.653334e-02	-5.890084e-02	0.0	8.878629e-02	-5.531173e-02	0.0	8.161524e-02	-5.112447e-02	0.0	7.465775e-02	-4.706190e-02	0.0	6.803424e-02	-4.292326e-02	0.0	6.168429e-02	-3.880066e-02	0.0	5.552169e-02	-3.482755e-02	0.0	4.939058e-02	-3.124994e-02	0.0	4.345841e-02	-2.778843e-02	0.0	3.754380e-02	-2.477158e-02	0.0	3.178693e-02	-2.192950e-02	0.0	2.618261e-02	-1.927133e-02	0.0	2.080310e-02	-1.664201e-02	0.0	1.577149e-02	-1.379286e-02	0.0	1.112746e-02	-1.071924e-02	0.0	6.812286e-03	-7.505730e-03	0.0	3.042788e-03	-3.941077e-03	0.0	4.409158e-01	7.561079e-02	0.0	8.403835e+01	2.912101e+01	0.0	8.079569e+01	2.020150e+01	0.0	8.887567e+01	1.815624e+01	0.0	7.557378e+01	-1.257080e+01	0.0	7.564416e+01	-2.505337e+01	0.0	8.704063e+01	-1.790577e+01	0.0	8.656418e+01	-4.449932e+00	0.0	3.340747e+01	2.391630e+01	0.0	4.564512e+01	2.892542e+01	0.0	3.731268e+01	3.712104e+01	0.0	7.309937e+01	2.481422e+01	0.0	6.853909e+01	-3.625976e+01	0.0	7.551283e+01	-4.424636e+01	0.0	8.115171e+01	-3.655461e+01	0.0	8.665153e+01	-2.848118e+01	0.0	5.342807e+01	3.074419e+01	0.0	5.237077e+01	3.942454e+01	0.0	5.601198e+01	-5.400714e+01	0.0	6.233797e+01	-6.032654e+01	0.0	6.578624e+01	-5.495547e+01	0.0	6.893762e+01	5.989170e+01	0.0	7.357785e+01	4.879007e+01	0.0	6.033808e+01	6.595787e+01	0.0	4.891445e+01	-6.469262e+01	0.0	4.591467e+01	-7.402772e+01	0.0	5.476412e+01	-7.235035e+01	0.0	6.646284e+01	-4.693691e+01	0.0	4.920406e+01	7.225630e+01	0.0	3.429879e+01	5.602506e+01	0.0	3.040164e+01	6.393665e+01	0.0	2.573689e+01	5.470644e+01	0.0	6.272687e+01	-6.773450e+01	0.0	2.681348e+01	8.465016e+01	0.0	2.651696e+01	7.378826e+01	0.0	3.457449e+01	8.039608e+01	0.0	3.720918e+01	-6.772592e+01	0.0	2.625022e+01	-7.720162e+01	0.0	3.864877e+01	-8.022194e+01	0.0	6.970904e+00	4.759756e+01	0.0	-1.310202e+00	4.518127e+01	0.0	4.096572e+00	3.888028e+01	0.0	1.868767e+01	8.956208e+01	0.0	1.381484e+01	7.813964e+01	0.0	1.583647e+01	3.685322e+01	0.0	2.322118e+01	4.574790e+01	0.0	1.623848e+01	5.105980e+01	0.0	6.622992e+00	-4.017186e-02	0.0	8.919798e+00	5.972979e-01	0.0	6.792949e+00	2.674697e+00	0.0	2.730090e+00	2.372091e+00	0.0	2.022275e+00	1.548202e+00	0.0	2.728079e+00	1.385287e+00	0.0	1.303237e+00	5.864296e-01	0.0	1.095742e+00	5.828872e-01	0.0	1.170441e+00	4.162036e-01	0.0	1.079634e+00	2.944191e-01	0.0	1.118559e+00	1.878415e-01	0.0	1.205434e+00	2.603393e-01	0.0	1.040110e+00	7.640592e-02	0.0	1.049362e+00	4.484465e-02	0.0	1.068421e+00	7.008448e-02	0.0	1.010446e+00	3.295141e-02	0.0	1.017488e+00	2.223315e-02	0.0	1.028473e+00	3.034595e-02	0.0	1.066294e+00	1.195120e-01	0.0	1.005400e+00	1.395136e-01	0.0	1.022011e+00	1.009290e-01	0.0	9.991244e-01	4.126258e-03	0.0	9.947501e-01	4.525053e-03	0.0	9.917918e-01	7.524537e-03	0.0	9.709147e-01	1.084871e-02	0.0	9.675988e-01	1.592206e-02	0.0	9.623910e-01	2.065775e-02	0.0	9.619008e-01	1.418627e-02	0.0	9.619041e-01	2.903884e-02	0.0	9.566130e-01	2.372653e-02	0.0	9.658982e-01	1.076039e-02	0.0	9.386
[...]
POINT_DATA 1838

SCALARS Density double 1
LOOKUP_TABLE default
1.291804e+00	1.291832e+00	1.292082e+00	1.292173e+00	1.292119e+00	1.292051e+00	1.292005e+00	1.291956e+00	1.291892e+00	1.291835e+00	1.291790e+00	1.291765e+00	1.291774e+00	1.291820e+00	1.291901e+00	1.291982e+00	1.292060e+00	1.292118e+00	1.292165e+00	1.292199e+00	1.292225e+00	1.292244e+00	1.292258e+00	1.292271e+00	1.292281e+00	1.292292e+00	1.292302e+00	1.292315e+00	1.292330e+00	1.292350e+00	1.292376e+00	1.292410e+00	1.292453e+00	1.292507e+00	1.292572e+00	1.292644e+00	1.292724e+00	1.292783e+00	1.292793e+00	1.292776e+00	1.292729e+00	1.292664e+00	1.292597e+00	1.292529e+00	1.292466e+00	1.292415e+00	1.292403e+00	1.292324e+00	1.292064e+00	1.481730e+00	1.087345e+00	1.062815e+00	1.038583e+00	1.031980e+00	1.023848e+00	1.035041e+00	1.043796e+00	1.050118e+00	1.047531e+00	1.045854e+00	1.037556e+00	1.025464e+00	1.002001e+00	9.629625e-01	9.079709e-01	8.382594e-01	7.816994e-01	7.285932e-01	6.836350e-01	6.603069e-01	6.470680e-01	6.430396e-01	6.525957e-01	6.610248e-01	6.759033e-01	7.024200e-01	7.508983e-01	9.814821e-01	1.179741e+00	1.194506e+00	1.190537e+00	1.173342e+00	1.158259e+00	1.146850e+00	1.133815e+00	1.117896e+00	1.107921e+00	1.099721e+00	1.090852e+00	1.086323e+00	1.079676e+00	1.073683e+00	1.068469e+00	1.059624e+00	1.047689e+00	1.028233e+00	1.008737e+00	9.823003e-01	9.508683e-01	9.281482e-01	8.847085e-01	8.458828e-01	8.126771e-01	7.696049e-01	7.505293e-01	7.214918e-01	6.943030e-01	6.819388e-01	6.870518e-01	8.102020e-01	1.083148e+00	1.166522e+00	1.165958e+00	1.165305e+00	1.169020e+00	1.171609e+00	1.173362e+00	1.173791e+00	1.174574e+00	1.177718e+00	1.178791e+00	1.183524e+00	1.191098e+00	1.196714e+00	1.205178e+00	1.212348e+00	1.219829e+00	1.226910e+00	1.232769e+00	1.238323e+00	1.243361e+00	1.248079e+00	1.252370e+00	1.256912e+00	1.261133e+00	1.265432e+00	1.270507e+00	1.274811e+00	1.280124e+00	1.285130e+00	1.290580e+00	1.296674e+00	1.302528e+00	1.309231e+00	1.316427e+00	1.325093e+00	1.338817e+00	1.342643e+00	1.362113e+00	1.437076e+00	1.412636e+00	1.409521e+00	1.414970e+00	1.416207e+00	1.417952e+00	1.419722e+00	1.422519e+00	1.424306e+00	1.426986e+00	1.430208e+00	1.432373e+00	1.438866e+00	1.438908e+00	1.448067e+00	1.450590e+00	1.448357e+00	1.456239e+00	1.446267e+00	1.448624e+00	1.440265e+00	1.414968e+00	1.398796e+00	1.368548e+00	1.334204e+00	1.306681e+00	1.255361e+00	1.223894e+00	1.211304e+00	1.190320e+00	1.194441e+00	1.190620e+00	1.195943e+00	1.209986e+00	1.214988e+00	1.222541e+00	1.227054e+00	1.228860e+00	1.227515e+00	1.225079e+00	1.223158e+00	1.216597e+00	1.214804e+00	1.213913e+00	1.211776e+00	1.217937e+00	1.221935e+00	1.228278e+00	1.238609e+00	1.245245e+00	1.251097e+00	1.259653e+00	1.259684e+00	1.258515e+00	1.255219e+00	1.243645e+00	1.232123e+00	1.219809e+00	1.199768e+00	1.186540e+00	1.177758e+00	1.162933e+00	1.166759e+00	1.176329e+00	1.184966e+00	1.203881e+00	1.217723e+00	1.226902e+00	1.244033e+00	1.243830e+00	1.230604e+00	1.218790e+00	1.201960e+00	1.142333e+00	9.890012e-01	8.293640e-01	7.899397e-01	8.515035e-01	9.003103e-01	9.974721e-01	1.143438e+00	1.188775e+00	1.266901e+00	1.344277e+00	1.385623e+00	1.433354e+00	1.475850e+00	1.500125e+00	1.521339e+00	1.538457e+00	1.545744e+00	1.555077e+00	1.560685e+00	1.573504e+00	1.596550e+00	1.623783e+00	1.624969e+00	1.708614e+00	1.041311e+00	1.292123e+00	1.292068e+00	1.292015e+00	1.292201e+00	1.292355e+00	1.292237e+00	1.291993e+00	1.291906e+00	1.291981e+00	1.291812e+00	1.292085e+00	1.292432e+00	1.292427e+00	1.292385e+00	1.292348e+00	1.292039e+00	1.291968e+00	1.292560e+00	1.292548e+00	1.292508e+00	1.292008e+00	1.292049e+00	1.291956e+00	1.292644e+00	1.292684e+00	1.292623e+00	1.292471e+00	1.291887e+00	1.291757e+00	1.291727e+00	1.291643e+00	1.292565e+00	1.291755e+00	1.291717e+00	1.291787e+00	1.292743e+00	1.292813e+00	1.292738e+00	1.291288e+00	1.291207e+00	1.291026e+00	1.291737e+00	1.291667e+00	1.291303e+00	1.291560e+00	1.291463e+00	1.290565e+00	1.290456e+00	1.291339e+00	1.286267e+00	1.284986e+00	1.292285e+00	1.289701e+00	1.280673e+00	1.294398e+00	1.296761e+00	1.309507e+00	1.307517e+00	1.318071e+00	1.320132e+00	1.317160e+00	1.326913e+00	1.332163e+00	1.328891e+00	1.312260e+00	1.304168e+00	1.312297e+00	1.361600e+00	1.345254e+00	1.335900e+00	1.306856e+00	1.304043e+00	1.299517e+00	1.298087e+00	1.299294e+00	1.294599e+00	1.301505e+00	1.280540e+00	1.283379e+00	1.285874e+00	1.289259e+00	1.285523e+00	1.246450e+00	1.237076e+00	1.222319e+00	1.272774e+00	1.273799e+00	1.266707e+00	1.270776e+00	1.256949e+00	1.251952e+00	1.252425e+00	1.262381e+00	1.260482e+00	1.255883e+00	1.253352e+00	1.261381e+00	1.243971e+00	1.241809e+00	1.232276e+00	1.229343e+00	1.218445e+00	1.212967e+00	1.218300e+00	1.223681e+00	1.433827e+00	1.428815e+00	1.422288e+00	1.197526e+00	1.124746e+00	1.187787e+00	1.155122e+00	1.146532e+00	1.147568e+00	1.219644e+00	1.204704e+00	1.240919e+00	1.248202e+00	1.251931e+00	1.184957e+00	1.179860e+00	1.182498e+00	1.203359e+00	1.200783e+00	1.210445e+00	1.183190e+00	1.190485e+00	1.176521e+00	1.272660e+00	1.261059e+00	1.254414e+00	1.230921e+00	1.259454e+00	1.258438e+00	1.258438e+00	1.417800e+00	1.416476e+00	1.414951e+00	1.183656e+00	1.185726e+00	1.180111e+00	1.248503e+00	1.295398e+00	1.237520e+00	1.192599e+00	1.258798e+00	1.257623e+00	1.256730e+00	1.203293e+00	1.226265e+00	1.255543e+00	1.256579e+00	1.258051e+00	1.318705e+00	1.249031e+00	1.318929e+00	8.491217e-01	8.755483e-01	1.195311e+00	1.166327e+00	1.121849e+00	9.554796e-01	1.189090e+00	1.202536e+00	1.130936e+00	1.178121e+00	1.180398e+00	1.179898e+00	1.179961e+00	1.608953e+00	1.625205e+00	1.599701e+00	1.340988e+00	1.297705e+00	1.310614e+00	1.557220e+00	1.578109e+00	1.568260e+00	1.594210e+00	1.662645e+00	1.321492e+00	1.296206e+00	1.321931e+00	1.464267e+00	1.493813e+00	1.499382e+00	1.337928e+00	1.359558e+00	1.373812e+00	1.379629e+00	1.271395e+00	1.304412e+00	1.284789e+00	1.406607e+00	1.384770e+00	1.392410e+00	1.462922e+00	1.429876e+00	1.432221e+00	1.573354e+00	1.561511e+00	1.533003e+00	1.544088e+00	1.538940e+00	1.539054e+00	1.324476e+00	1.331052e+00	1.350144e+00	1.216244e+00	1.414850e+00	1.426079e+00	1.232783e+00	1.255315e+00	1.237628e+00	1.405119e+00	1.212753e+00	1.415350e+00	1.406906e+00	1.423071e+00	1.446204e+00	1.442091e+00	1.448220e+00	1.437088e+00	1.440320e+00	1.443701e+00	1.439659e+00	1.445742e+00	1.419836e+00	1.426256e+00	1.431022e+00	1.351080e+00	1.335684e+00	1.339509e+00	1.423391e+00	1.417880e+00	1.422474e+00	1.436811e+00	1.432980e+00	1.434726e+00	1.427861e+00	1.431164e+00	1.425417e+00	1.428503e+00	1.403900e+00	1.395694e+00	1.396257e+00	1.204455e+00	1.211776e+00	1.213497e+00	1.219242e+00	1.227001e+00	1.235650e+00	1.244216e+00	1.266089e+00	1.271980e+00	1.255991e+00	1.231078e+00	1.233950e+00	1.235642e+00	1.242066e+00	1.237131e+00	1.227462e+00	1.231338e+00	1.234520e+00	1.229826e+00	1.221462e+00	1.218989e+00	1.235569e+00	1.233762e+00	1.229420e+00	1.220654e+00	1.222212e+00	1.224639e+00	1.227216e+00	1.241321e+00	1.240960e+00	1.248843e+00	1.292816e+00	1.292778e+00	1.256576e+00	1.267307e+00	1.264915e+00	1.237043e+00	1.230017e+00	1.244401e+00	1.243912e+00	1.255748e+00	1.253910e+00	1.250881e+00	1.256075e+00	1.255793e+00	1.259919e+00	1.230042e+00	1.218939e+00	1.233238e+00	1.229256e+00	1.233735e+00	1.221215e+00	1.242598e+00	1.298787e+00	1.265282e+00	1.217474e+00	1.226301e+00	1.227234e+00	1.219648e+00	1.353340e+00	1.330712e+00	1.292838e+00	1.292763e+00	1.292711e+00	1.399451e+00	1.373518e+00	1.292627e+00	1.292629e+00	1.292705e+00	1.439420e+00	1.408423e+00	1.292891e+00	1.292919e+00	1.292973e+00	1.527335e+00	1.510923e+00	1.308974e+00	1.316243e+00	1.314263e+00	1.293035e+00	1.293333e+00	1.293068e+00	1.292530e+00	1.292458e+00	1.292478e+00	1.293050e+00	1.293535e+00	1.294078e+00	1.299107e+00	1.296919e+00	1.298343e+00	1.293377e+00	1.293744e+00	1.292555e+00	1.292408e+00	1.292181e+00	1.292276e+00	1.292457e+00	1.292432e+00	1.292399e+00	1.292289e+00	1.292307e+00	1.292302e+00	1.292377e+00	1.292381e+00	1.292343e+00	1.292333e+00	1.292319e+00	1.292291e+00	1.292277e+00	1.292238e+00	1.292259e+00	1.292246e+00	1.292209e+00	1.292189e+00	1.292223e+00	1.104774e+00	1.130670e+00	1.112181e+00	1.291241e+00	1.291933e+00	1.290552e+00	1.291658e+00	1.291917e+00	1.291277e+00	1.292157e+00	1.292054e+00	1.292074e+00	1.292150e+00	9.993765e-01	1.069467e+00	1.067034e+00	1.094836e+00	1.292043e+00	1.284727e+00	1.206770e+00	1.251365e+00	1.309038e+00	1.289190e+00	1.329564e+00	1.087757e+00	1.103250e+00	1.066029e+00	1.004966e+00	9.791512e-01	9.520585e-01	9.485505e-01	9.459678e-01	8.348358e-01	7.904796e-01	7.603664e-01	1.291882e+00	1.291947e+00	1.288551e+00	1.289076e+00	1.290491e+00	6.560711e-01	6.603372e-01	6.486118e-01	6.775222e-01	6.653341e-01	6.702248e-01	1.234733e+00	1.189383e+00	1.291872e+00	1.291795e+00	6.871316e-01	6.783930e-01	7.267249e-01	8.539430e-01	1.182144e+00	1.153711e+00	1.199130e+00	1.171550e+00	1.154313e+00	1.186432e+00	1.189513e+00	1.173900e+00	1.107581e+00	1.103165e+00	1.115675e+00	1.113710e+00	1.160266e+00	1.142794e+00	1.119101e+00	1.137808e+00	1.206419e+00	1.197774e+00	1.191479e+00	9.887389e-01	9.913331e-01	1.048814e+00	1.095590e+00	1.097901e+00	1.087095e+00	1.067392e+00	1.073384e+00	1.183489e+00	1.073408e+00	1.058521e+00	1.073368e+00	1.079359e+00	1.069932e+00	1.236245e+00	1.232030e+00	1.219158e+00	1.213349e+00	1.215879e+00	1.206857e+00	1.175745e+00	1.175112e+00	1.201141e+00	1.207605e+00	1.215950e+00	1.203054e+00	1.209273e+00	1.016972e+00	9.983152e-01	1.061464e+00	1.167401e+00	1.155013e+00	9.778079e-01	1.180962e+00	1.123790e+00	9.389876e-01	1.139669e+00	1.128923e+00	1.114647e+00	9.862918e-01	6.936645e-01	7.338468e-01	7.399012e-01	7.371426e-01	9.576942e-01	6.953158e-01	7.395474e-01	7.036863e-01	7.035238e-01	7.304555e-01	1.291783e+00	8.587843e-01	8.120240e-01	8.615445e-01	8.409845e-01	8.033644e-01	8.162810e-01	8.527614e-01	9.922117e-01	9.512622e-01	9.656366e-01	9.244794e-01	9.687999e-01	9.141920e-01	9.288830e-01	9.107165e-01	9.497731e-01	1.121795e+00	1.101860e+00	1.004647e+00	9.896060e-01	1.067659e+00	1.084298e+00	1.092776e+00	1.286553e+00	1.264300e+00	1.281311e+00	1.292272e+00	6.562064e-01	6.815884e-01	1.292067e+00	1.292097e+00	1.296184e+00	1.295104e+00	1.420170e+00	1.293078e+00	1.293158e+00	1.293682e+00	1.292360e+00	1.292521e+00	1.292652e+00	1.292764e+00	1.292128e+00	1.292301e+00	1.292637e+00	1.292808e+00	1.293126e+00	1.293239e+00	1.291800e+00	1.291844e+00	1.291723e+00	1.291938e+00	1.291874e+00	1.291986e+00	1.292512e+00	1.292461e+00	1.292053e+00	1.292103e+00	1.292245e+00	1.292156e+00	1.088188e+00	1.068635e+00	1.292143e+00	1.292203e+00	1.293271e+00	1.293528e+00	1.292209e+00	1.291915e+00	1.289695e+00	1.289742e+00	1.290337e+00	1.288308e+00	1.292586e+00	1.292494e+00	1.292776e+00	1.292520e+00	1.292227e+00	1.292164e+00	1.292217e+00	1.291743e+00	1.291676e+00	1.292868e+00	1.292896e+00	1.293076e+00	1.292966e+00	1.292944e+00	1.292089e+00	1.292120e+00	1.292028e+00	1.291973e+00	1.291854e+00	1.291724e+00	1.291975e+00	1.291942e+00	1.292322e+00	1.292410e+00	1.292591e+00	1.292726e+00	1.292673e+00	1.293054e+00	1.292946e+00	1.292939e+00	1.292583e+00	1.292493e+00	1.292020e+00	1.291862e+00	1.291949e+00	1.292438e+00	1.292839e+00	1.301318e+00	1.301469e+00	1.292928e+00	1.043948e+00	1.031916e+00	1.257727e+00	1.334181e+00	1.305945e+00	1.292975e+00	1.291652e+00	1.291071e+00	1.291434e+00	1.291991e+00	1.292429e+00	1.291624e+00	1.294369e+00	1.293008e+00	1.292395e+00	1.292561e+00	1.295447e+00	1.295253e+00	1.296134e+00	1.291489e+00	1.290939e+00	1.294276e+00	1.294145e+00	1.290393e+00	1.290480e+00	7.225867e-01	1.292052e+00	1.292022e+00	1.292309e+00	1.292298e+00	1.292678e+00	1.292611e+00	1.292418e+00	1.291754e+00	1.291684e+00	1.291689e+00	1.292246e+00	1.292295e+00	1.292367e+00	1.292416e+00	1.292465e+00	1.292335e+00	1.292329e+00	1.292088e+00	1.292834e+00	1.292868e+00	1.292812e+00	1.292068e+00	1.291968e+00	1.292024e+00	1.293068e+00	1.292446e+00	1.292496e+00	1.292588e+00	1.292844e+00	1.292839e+00	1.291808e+00	1.292460e+00	1.291469e+00	1.292151e+00	1.291992e+00	1.292878e+00	1.291969e+00	1.291871e+00	1.293451e+00	1.292551e+00	1.292704e+00	1.291022e+00	1.290654e+00	1.291507e+00	1.291392e+00	1.292079e+00	1.292571e+00	1.292268e+00	1.291895e+00	1.291758e+00	1.291953e+00	1.292107e+00	1.292098e+00	1.292434e+00	1.292008e+00	1.291971e+00	1.291696e+00	1.292841e+00	1.291783e+00	1.292016e+00	1.292011e+00	1.292797e+00	1.292713e+00	1.291900e+00	1.291826e+00	1.291614e+00	1.292853e+00	1.291559e+00	1.292389e+00	1.291564e+00	1.291599e+00	1.292524e+00	1.292615e+00	1.291538e+00	1.292699e+00	1.293876e+00	1.292317e+00	1.292752e+00	1.291768e+00	1.292947e+00	1.295104e+00	1.288528e+00	1.289854e+00	1.291326e+00	1.291719e+00	1.295930e+00	1.293038e+00	1.289003e+00	1.290811e+00	1.291185e+00	1.294119e+00	1.360932e+00	1.337948e+00	1.294327e+00	1.297057e+00	1.294364e+00	1.296426e+00	1.291345e+00	1.284724e+00	1.286439e+00	1.287117e+00	1.293109e+00	1.292420e+00	1.293317e+00	1.280193e+00	1.249252e+00	1.271555e+00	1.289590e+00	1.286425e+00	1.223924e+00	1.293519e+00	1.292596e+00	1.288419e+00	1.294484e+00	1.294590e+00	1.292908e+00	1.290412e+00	1.291188e+00	1.413350e+00	1.411491e+00	1.410792e+00	1.293716e+00	1.288159e+00	1.283998e+00	1.290825e+00	1.290769e+00	1.284850e+00	1.281340e+00	1.280944e+00	1.319278e+00	1.329531e+00	1.318810e+00	1.296412e+00	1.297606e+00	1.294236e+00	1.364815e+00	1.415097e+00	1.299123e+00	1.299496e+00	1.301897e+00	1.294207e+00	1.291392e+00	1.296977e+00	1.290158e+00	1.283897e+00	1.301323e+00	1.298778e+00	1.301749e+00	1.295121e+00	1.289465e+00	1.292112e+00	1.286288e+00	1.277988e+00	1.288734e+00	1.281595e+00	1.298896e+00	1.300208e+00	1.301485e+00	1.304007e+00	1.304636e+00	1.303527e+00	1.292479e+00	1.266363e+00	1.274914e+00	1.290411e+00	1.303262e+00	1.300992e+00	1.278077e+00	1.297006e+00	1.304558e+00	1.308411e+00	1.304863e+00	1.299238e+00	1.298472e+00	1.302794e+00	1.295159e+00	1.297999e+00	1.075626e+00	1.087982e+00	1.300871e+00	1.294252e+00	1.286010e+00	1.265338e+00	1.253275e+00	1.235152e+00	1.304812e+00	1.275200e+00	1.301196e+00	1.416024e+00	1.413578e+00	1.301999e+00	1.305671e+00	1.308142e+00	1.288688e+00	1.244208e+00	1.251291e+00	1.275478e+00	1.278793e+00	1.279476e+00	1.266551e+00	1.293837e+00	7.754541e-01	7.122145e-01	7.674144e-01	1.292322e+00	1.306184e+00	1.307381e+00	1.289745e+00	1.271944e+00	1.312987e+00	1.305104e+00	1.296254e+00	1.298320e+00	1.298663e+00	1.303122e+00	1.077957e+00	1.311010e+00	1.313174e+00	1.286477e+00	1.283738e+00	1.294903e+00	1.368643e+00	1.367445e+00	1.382153e+00	1.288636e+00	1.310011e+00	1.309432e+00	1.303231e+00	1.303834e+00	1.297731e+00	1.312182e+00	1.299609e+00	1.305924e+00	1.302647e+00	1.414814e+00	1.200928e+00	1.192020e+00	1.197446e+00	1.228572e+00	1.317122e+00	1.322076e+00	1.066139e+00	1.288127e+00	1.302939e+00	1.292036e+00	1.317723e+00	1.307499e+00	1.106662e+00	1.311090e+00	1.309211e+00	1.285940e+00	1.241755e+00	1.233375e+00	1.327398e+00	1.320762e+00	1.330870e+00	1.323940e+00	1.337201e+00	1.333957e+00	1.315167e+00	1.317417e+00	1.317990e+00	1.198985e+00	1.304895e+00	1.316299e+00	1.156909e+00	1.117213e+00	1.318553e+00	1.329687e+00	1.135172e+00	1.143590e+00	1.296624e+00	1.288968e+00	1.295960e+00	1.331181e+00	1.323763e+00	1.301530e+00	1.353044e+00	1.347739e+00	1.272708e+00	1.305556e+00	1.319962e+00	1.284687e+00	1.037488e+00	1.333839e+00	1.307040e+00	1.231163e+00	1.312733e+00	1.152130e+00	1.167939e+00	1.117079e+00	1.139118e+00	1.117462e+00	1.303574e+00	1.300269e+00	1.012748e+00	1.255272e+00	1.262252e+00	1.228713e+00	1.298815e+00	1.313592e+00	1.311729e+00	1.359827e+00	1.347642e+00	1.349744e+00	1.291394e+00	1.348767e+00	1.378663e+00	1.367271e+00	1.273089e+00	1.054303e+00	1.003554e+00	1.259339e+00	1.399047e+00	1.400924e+00	1.130932e+00	1.110396e+00	1.216125e+00	1.101728e+00	7.269298e-01	7.107983e-01	1.221479e+00	1.069984e+00	1.002032e+00	1.303336e+00	1.224095e+00	1.260810e+00	1.283617e+00	1.373350e+00	1.294992e+00	1.305118e+00	1.335862e+00	1.419073e+00	1.428136e+00	1.132278e+00	1.369668e+00	1.266477e+00	1.259829e+00	1.242694e+00	1.231912e+00	1.357779e+00	1.268969e+00	1.385894e+00	1.378455e+00	1.381497e+00	1.340142e+00	1.249916e+00	1.262962e+00	1.238840e+00	1.110066e+00	1.087705e+00	1.083581e+00	1.376100e+00	1.390258e+00	1.205402e+00	1.223723e+00	1.280404e+00	1.282927e+00	1.239995e+00	1.340502e+00	1.050174e+00	1.062288e+00	1.114253e+00	1.280120e+00	1.301578e+00	1.276805e+00	1.246981e+00	1.161920e+00	1.250051e+00	1.259049e+00	1.239888e+00	1.246645e+00	1.121092e+00	1.163347e+00	1.137150e+00	1.064505e+00	1.189613e+00	1.196194e+00	1.364722e+00	1.358416e+00	1.362088e+00	1.287633e+00	1.274243e+00	1.289089e+00	9.122758e-01	1.050050e+00	1.400874e+00	1.500148e+00	1.488728e+00	1.251771e+00	1.197710e+00	1.207513e+00	1.210251e+00	9.276551e-01	1.058081e+00	1.019480e+00	1.309107e+00	1.254172e+00	1.253797e+00	1.247015e+00	1.376545e+00	1.373452e+00	8.296024e-01	8.522087e-01	1.213907e+00	1.223959e+00	1.222872e+00	1.333355e+00	1.335836e+00	1.245843e+00	1.253404e+00	1.229619e+00	1.381447e+00	1.375684e+00	1.353734e+00	8.904380e-01	8.179869e-01	1.306354e+00	1.302674e+00	1.286289e+00	1.434053e+00	1.473208e+00	1.585521e+00	1.642631e+00	1.354098e+00	1.301186e+00	1.404696e+00	1.421703e+00	1.356340e+00	1.361601e+00	1.124468e+00	1.137786e+00	1.125440e+00	1.036790e+00	1.023765e+00	1.234475e+00	1.238401e+00	1.245740e+00	1.330382e+00	1.431037e+00	6.821340e-01	1.388850e+00	1.380169e+00	1.435041e+00	1.440305e+00	1.170319e+00	1.150874e+00	1.428947e+00	1.410214e+00	1.371030e+00	1.219059e+00	1.231217e+00	1.230742e+00	1.142040e+00	9.596694e-01	1.370727e+00	1.349156e+00	1.221684e+00	1.206651e+00	1.396710e+00	1.347536e+00	1.421648e+00	1.452255e+00	1.466255e+00	1.106617e+00	1.091458e+00	1.023009e+00	1.179978e+00	1.143356e+00	8.981720e-01	1.317873e+00	1.288169e+00	1.244604e+00	1.241666e+00	1.234689e+00	1.230990e+00	1.227336e+00	7.282647e-01	1.185160e+00	1.253767e+00	1.171559e+00	1.165437e+00	1.209642e+00	1.388051e+00	1.437959e+00	1.202452e+00	1.253428e+00	1.433862e+00	1.395815e+00	1.349345e+00	1.075554e+00	1.140988e+00	1.376284e+00	1.385538e+00	1.364784e+00	1.380774e+00	1.222954e+00	1.197093e+00	1.188137e+00	8.748457e-01	1.044382e+00	1.009377e+00	1.293461e+00	1.188022e+00	1.254333e+00	1.224625e+00	1.247228e+00	1.255684e+00	9.199114e-01	1.140269e+00	1.236018e+00	1.239441e+00	1.232521e+00	1.105498e+00	1.095975e+00	1.090125e+00	1.251597e+00	1.024742e+00	1.056546e+00	1.044887e+00	1.323501e+00	1.350737e+00	1.586005e+00	1.472077e+00	1.418936e+00	1.410015e+00	1.242129e+00	1.246154e+00	1.237557e+00	1.218078e+00	1.235849e+00	1.243704e+00	1.531918e+00	1.527652e+00	1.457642e+00	1.479459e+00	1.445556e+00	1.318805e+00	1.321725e+00	1.312842e+00	1.212403e+00	1.334459e+00	1.315723e+00	1.254813e+00	9.730535e-01	9.182275e-01	8.676223e-01	9.732786e-01	1.227501e+00	1.241534e+00	1.272120e+00	1.244417e+00	1.300524e+00	1.315150e+00	1.076279e+00	9.723544e-01	1.296594e+00	1.309130e+00	1.366504e+00	9.644330e-01	1.252263e+00	1.381356e+00	1.357695e+00	1.397350e+00	1.311891e+00	1.306444e+00	1.237446e+00	1.235092e+00	1.229914e+00	1.183983e+00	1.180240e+00	7.652889e-01	1.064745e+00	1.407335e+00	1.413190e+00	1.357687e+00	1.382261e+00	1.373051e+00	1.328767e+00	1.297861e+00	1.299449e+00	8.206815e-01	7.781311e-01	7.658304e-01	1.179034e+00	1.190979e+00	1.427632e+00	1.425144e+00	1.402291e+00	1.140403e+00	1.147242e+00	1.501141e+00	1.533416e+00	1.596250e+00	1.191595e+00	1.141875e+00	1.096813e+00	1.033205e+00	9.951464e-01	1.058577e+00	9.580756e-01	7.509086e-01	1.364484e+00	1.355487e+00	1.105465e+00	8.570114e-01	6.988256e-01	6.754585e-01	1.333833e+00	1.316859e+00	1.406255e+00	1.397632e+00	1.202321e+00	8.070137e-01	1.212377e+00	1.075125e+00	1.118256e+00	1.040682e+00	1.515774e+00	1.494174e+00	1.410579e+00	1.416426e+00	1.407483e+00	1.193822e+00	1.243035e+00	1.224913e+00	1.234028e+00	1.219666e+00	9.555581e-01	9.929897e-01	1.253783e+00	7.560587e-01	9.507140e-01	1.181177e+00	1.064831e+00	1.080243e+00	1.239691e+00	1.249339e+00	1.258083e+00	1.268688e+00	8.785929e-01	1.252190e+00	1.228850e+00	1.237726e+00	1.235798e+00	8.733541e-01	1.163033e+00	1.165281e+00	1.167775e+00	1.302218e+00	1.313734e+00	1.224060e+00	1.247068e+00	1.243789e+00	8.742705e-01	7.327842e-01	1.250132e+00	1.334522e+00	1.276742e+00	1.270241e+00	1.271765e+00	1.281744e+00	1.240642