# vtk DataFile Version 3.0
vtk output
ASCII
DATASET UNSTRUCTURED_GRID
POINTS 198 double
0.000000e+00	0.000000e+00	0.0	3.363995e-03	3.699127e-03	0.0	6.991352e-03	7.373321e-03	0.0	1.149827e-02	1.030560e-02	0.0	1.625566e-02	1.318896e-02	0.0	2.148651e-02	1.563164e-02	0.0	2.694054e-02	1.807395e-02	0.0	3.270878e-02	2.031454e-02	0.0	3.869838e-02	2.257410e-02	0.0	4.495020e-02	2.475430e-02	0.0	5.143442e-02	2.694204e-02	0.0	5.816850e-02	2.909769e-02	0.0	6.514537e-02	3.124882e-02	0.0	7.236262e-02	3.341511e-02	0.0	7.985559e-02	3.548041e-02	0.0	8.761133e-02	3.748433e-02	0.0	9.569757e-02	3.914941e-02	0.0	1.040775e-01	4.053536e-02	0.0	1.127624e-01	4.158519e-02	0.0	1.217258e-01	4.227608e-02	0.0	1.309635e-01	4.267221e-02	0.0	1.404542e-01	4.295214e-02	0.0	1.502002e-01	4.302561e-02	0.0	1.601959e-01	4.310097e-02	0.0	1.704397e-01	4.321820e-02	0.0	1.809305e-01	4.333931e-02	0.0	1.916615e-01	4.362054e-02	0.0	2.026291e-01	4.409923e-02	0.0	2.138348e-01	4.458831e-02	0.0	2.252496e-01	4.548133e-02	0.0	2.368900e-01	4.644094e-02	0.0	2.487464e-01	4.749622e-02	0.0	2.608045e-01	4.873353e-02	0.0	2.730723e-01	4.999236e-02	0.0	2.855401e-01	5.129190e-02	0.0	2.982012e-01	5.261793e-02	0.0	3.110504e-01	5.393250e-02	0.0	3.240866e-01	5.514994e-02	0.0	3.372884e-01	5.638284e-02	0.0	3.506535e-01	5.753206e-02	0.0	3.641663e-01	5.864659e-02	0.0	3.778120e-01	5.975762e-02	0.0	3.915831e-01	6.080000e-02	0.0	4.054607e-01	6.185043e-02	0.0	4.194337e-01	6.287622e-02	0.0	4.334876e-01	6.389031e-02	0.0	4.476085e-01	6.488556e-02	0.0	4.617901e-01	6.573982e-02	0.0	4.760086e-01	6.659629e-02	0.0	4.902619e-01	6.716907e-02	0.0	5.045296e-01	6.758316e-02	0.0	5.187904e-01	6.788923e-02	0.0	5.330310e-01	6.757250e-02	0.0	5.472349e-01	6.725658e-02	0.0	5.613573e-01	6.637430e-02	0.0	5.753980e-01	6.519258e-02	0.0	5.893506e-01	6.393471e-02	0.0	6.031568e-01	6.217942e-02	0.0	6.168570e-01	6.043760e-02	0.0	6.304184e-01	5.856338e-02	0.0	6.438361e-01	5.661312e-02	0.0	6.571119e-01	5.468800e-02	0.0	6.702437e-01	5.285448e-02	0.0	6.832108e-01	5.104395e-02	0.0	6.960118e-01	4.932240e-02	0.0	7.086370e-01	4.768981e-02	0.0	7.210689e-01	4.608221e-02	0.0	7.333025e-01	4.452560e-02	0.0	7.453271e-01	4.299685e-02	0.0	7.571306e-01	4.145591e-02	0.0	7.687059e-01	3.989611e-02	0.0	7.800529e-01	3.835976e-02	0.0	7.911457e-01	3.669957e-02	0.0	8.020027e-01	3.507466e-02	0.0	8.126055e-01	3.338849e-02	0.0	8.229615e-01	3.170808e-02	0.0	8.330680e-01	3.003251e-02	0.0	8.429235e-01	2.836305e-02	0.0	8.525326e-01	2.673310e-02	0.0	8.618938e-01	2.513740e-02	0.0	8.710084e-01	2.358371e-02	0.0	8.798767e-01	2.206930e-02	0.0	8.884999e-01	2.059621e-02	0.0	8.968786e-01	1.915900e-02	0.0	9.050139e-01	1.775303e-02	0.0	9.129098e-01	1.638842e-02	0.0	9.205645e-01	1.503928e-02	0.0	9.279846e-01	1.372648e-02	0.0	9.351717e-01	1.244077e-02	0.0	9.421277e-01	1.117246e-02	0.0	9.488605e-01	9.944181e-03	0.0	9.553684e-01	8.725037e-03	0.0	9.616613e-01	7.546153e-03	0.0	9.677396e-01	6.385419e-03	0.0	9.736111e-01	5.260378e-03	0.0	9.792777e-01	4.156639e-03	0.0	9.847461e-01	3.084582e-03	0.0	9.900202e-01	2.038057e-03	0.0	9.951037e-01	1.012552e-03	0.0	1.000000e+00	0.000000e+00	0.0	9.950043e-01	2.069132e-04	0.0	9.898199e-01	4.003136e-04	0.0	9.844407e-01	5.458861e-04	0.0	9.788625e-01	6.485308e-04	0.0	9.730808e-01	7.276120e-04	0.0	9.670907e-01	7.502665e-04	0.0	9.608879e-01	7.501604e-04	0.0	9.544680e-01	6.850363e-04	0.0	9.478266e-01	6.035236e-04	0.0	9.409607e-01	4.259646e-04	0.0	9.338645e-01	2.424505e-04	0.0	9.265378e-01	-5.446511e-05	0.0	9.189742e-01	-3.850368e-04	0.0	9.111754e-01	-8.258863e-04	0.0	9.031425e-01	-1.445432e-03	0.0	8.948630e-01	-2.083994e-03	0.0	8.863816e-01	-3.182861e-03	0.0	8.776564e-01	-4.369896e-03	0.0	8.687360e-01	-5.903137e-03	0.0	8.596433e-01	-7.918484e-03	0.0	8.503042e-01	-9.999313e-03	0.0	8.409272e-01	-1.292850e-02	0.0	8.313068e-01	-1.593369e-02	0.0	8.214981e-01	-1.918008e-02	0.0	8.114767e-01	-2.258868e-02	0.0	8.011773e-01	-2.594904e-02	0.0	7.905615e-01	-2.913234e-02	0.0	7.797121e-01	-3.238570e-02	0.0	7.684044e-01	-3.481629e-02	0.0	7.568638e-01	-3.728376e-02	0.0	7.450156e-01	-3.933016e-02	0.0	7.328843e-01	-4.105837e-02	0.0	7.205338e-01	-4.277403e-02	0.0	7.079233e-01	-4.408367e-02	0.0	6.951140e-01	-4.541396e-02	0.0	6.821051e-01	-4.666477e-02	0.0	6.689088e-01	-4.785959e-02	0.0	6.555424e-01	-4.906826e-02	0.0	6.420147e-01	-5.026625e-02	0.0	6.283397e-01	-5.147728e-02	0.0	6.145240e-01	-5.263636e-02	0.0	6.005815e-01	-5.375377e-02	0.0	5.865285e-01	-5.486583e-02	0.0	5.723645e-01	-5.577181e-02	0.0	5.581187e-01	-5.668303e-02	0.0	5.437962e-01	-5.742240e-02	0.0	5.294142e-01	-5.803918e-02	0.0	5.149938e-01	-5.863929e-02	0.0	5.005454e-01	-5.910257e-02	0.0	4.860894e-01	-5.956609e-02	0.0	4.716424e-01	-6.007123e-02	0.0	4.572190e-01	-6.059760e-02	0.0	4.428358e-01	-6.117593e-02	0.0	4.285156e-01	-6.197316e-02	0.0	4.142628e-01	-6.276665e-02	0.0	4.001028e-01	-6.372854e-02	0.0	3.860428e-01	-6.474782e-02	0.0	3.720910e-01	-6.574383e-02	0.0	3.582588e-01	-6.668716e-02	0.0	3.445621e-01	-6.762125e-02	0.0	3.309971e-01	-6.825401e-02	0.0	3.175872e-01	-6.879822e-02	0.0	3.043446e-01	-6.916947e-02	0.0	2.912754e-01	-6.915144e-02	0.0	2.783972e-01	-6.913367e-02	0.0	2.657214e-01	-6.890463e-02	0.0	2.532546e-01	-6.863128e-02	0.0	2.410030e-01	-6.840557e-02	0.0	2.289730e-01	-6.827472e-02	0.0	2.171724e-01	-6.814637e-02	0.0	2.056106e-01	-6.841942e-02	0.0	1.942895e-01	-6.877346e-02	0.0	1.832139e-01	-6.916819e-02	0.0	1.723895e-01	-6.965545e-02	0.0	1.618150e-01	-7.013147e-02	0.0	1.514861e-01	-7.002947e-02	0.0	1.414096e-01	-6.981305e-02	0.0	1.316468e-01	-6.903715e-02	0.0	1.222431e-01	-6.726849e-02	0.0	1.130902e-01	-6.554699e-02	0.0	1.046606e-01	-6.228970e-02	0.0	9.653334e-02	-5.890084e-02	0.0	8.878629e-02	-5.531173e-02	0.0	8.161524e-02	-5.112447e-02	0.0	7.465775e-02	-4.706190e-02	0.0	6.803424e-02	-4.292326e-02	0.0	6.168429e-02	-3.880066e-02	0.0	5.552169e-02	-3.482755e-02	0.0	4.939058e-02	-3.124994e-02	0.0	4.345841e-02	-2.778843e-02	0.0	3.754380e-02	-2.477158e-02	0.0	3.178693e-02	-2.192950e-02	0.0	2.618261e-02	-1.927133e-02	0.0	2.080310e-02	-1.664201e-02	0.0	1.577149e-02	-1.379286e-02	0.0	1.112746e-02	-1.071924e-02	0.0	6.812286e-03	-7.505730e-03	0.0	3.042788e-03	-3.941077e-03	0.0	
CELLS 198	594
2	28	29	2	29	30	2	30	31	2	31	32	2	32	33	2	33	34	2	34	35	2	35	36	2	36	37	2	37	38	2	38	39	2	39	40	2	40	41	2	41	42	2	42	43	2	43	44	2	44	45	2	45	46	2	46	47	2	47	48	2	48	49	2	49	50	2	50	51	2	51	52	2	52	53	2	53	54	2	54	55	2	55	56	2	56	57	2	57	58	2	58	59	2	59	60	2	60	61	2	61	62	2	62	63	2	63	64	2	64	65	2	65	66	2	66	67	2	67	68	2	68	69	2	69	70	2	70	71	2	71	72	2	72	73	2	73	74	2	74	75	2	75	76	2	76	77	2	77	78	2	78	79	2	79	80	2	80	81	2	81	82	2	82	83	2	83	84	2	84	85	2	85	86	2	86	87	2	87	88	2	88	89	2	89	90	2	90	91	2	91	92	2	92	93	2	93	94	2	94	95	2	95	96	2	96	97	2	97	98	2	98	99	2	99	100	2	100	101	2	101	102	2	102	103	2	103	104	2	104	105	2	105	106	2	106	107	2	107	108	2	108	109	2	109	110	2	110	111	2	111	112	2	112	113	2	113	114	2	114	115	2	115	116	2	116	117	2	117	118	2	118	119	2	119	120	2	120	121	2	121	122	2	122	123	2	123	124	2	124	125	2	125	126	2	126	127	2	127	128	2	128	129	2	129	130	2	130	131	2	131	132	2	132	133	2	133	134	2	134	135	2	135	136	2	136	137	2	137	138	2	138	139	2	139	140	2	140	141	2	141	142	2	142	143	2	143	144	2	144	145	2	145	146	2	146	147	2	147	148	2	148	149	2	149	150	2	150	151	2	151	152	2	152	153	2	153	154	2	154	155	2	155	156	2	156	157	2	157	158	2	158	159	2	159	160	2	160	161	2	161	162	2	162	163	2	0	1	2	1	2	2	2	3	2	3	4	2	4	5	2	5	6	2	6	7	2	7	8	2	8	9	2	9	10	2	10	11	2	11	12	2	12	13	2	13	14	2	14	15	2	15	16	2	16	17	2	17	18	2	18	19	2	19	20	2	20	21	2	21	22	2	22	23	2	23	24	2	24	25	2	25	26	2	26	27	2	27	28	2	163	164	2	164	165	2	165	166	2	166	167	2	167	168	2	168	169	2	169	170	2	170	171	2	171	172	2	172	173	2	173	174	2	174	175	2	175	176	2	176	177	2	177	178	2	178	179	2	179	180	2	180	181	2	181	182	2	182	183	2	183	184	2	184	185	2	185	186	2	186	187	2	187	188	2	188	189	2	189	190	2	190	191	2	191	192	2	192	193	2	193	194	2	194	195	2	195	196	2	196	197	2	197	0	
CELL_TYPES 198
3	3	3	3	3	3	3	3	3	3	3	3	3	3	3	3	3	3	3	3	3	3	3	3	3	3	3	3	3	3	3	3	3	3	3	3	3	3	3	3	3	3	3	3	3	3	3	3	3	3	3	3	3	3	3	3	3	3	3	3	3	3	3	3	3	3	3	3	3	3	3	3	3	3	3	3	3	3	3	3	3	3	3	3	3	3	3	3	3	3	3	3	3	3	3	3	3	3	3	3	3	3	3	3	3	3	3	3	3	3	3	3	3	3	3	3	3	3	3	3	3	3	3	3	3	3	3	3	3	3	3	3	3	3	3	3	3	3	3	3	3	3	3	3	3	3	3	3	3	3	3	3	3	3	3	3	3	3	3	3	3	3	3	3	3	3	3	3	3	3	3	3	3	3	3	3	3	3	3	3	3	3	3	3	3	3	3	3	3	3	3	3	3	3	3	3	3	3	
POINT_DATA 198

SCALARS Density double 1
LOOKUP_TABLE default
1.481730e+00	1.087345e+00	1.062815e+00	1.038583e+00	1.031980e+00	1.023848e+00	1.035041e+00	1.043796e+00	1.050118e+00	1.047531e+00	1.045854e+00	1.037556e+00	1.025464e+00	1.002001e+00	9.629625e-01	9.079709e-01	8.382594e-01	7.816994e-01	7.285932e-01	6.836350e-01	6.603069e-01	6.470680e-01	6.430396e-01	6.525957e-01	6.610248e-01	6.759033e-01	7.024200e-01	7.508983e-01	9.814821e-01	1.179741e+00	1.194506e+00	1.190537e+00	1.173342e+00	1.158259e+00	1.146850e+00	1.133815e+00	1.117896e+00	1.107921e+00	1.099721e+00	1.090852e+00	1.086323e+00	1.079676e+00	1.073683e+00	1.068469e+00	1.059624e+00	1.047689e+00	1.028233e+00	1.008737e+00	9.823003e-01	9.508683e-01	9.281482e-01	8.847085e-01	8.458828e-01	8.126771e-01	7.696049e-01	7.505293e-01	7.214918e-01	6.943030e-01	6.819388e-01	6.870518e-01	8.102020e-01	1.083148e+00	1.166522e+00	1.165958e+00	1.165305e+00	1.169020e+00	1.171609e+00	1.173362e+00	1.173791e+00	1.174574e+00	1.177718e+00	1.178791e+00	1.183524e+00	1.191098e+00	1.196714e+00	1.205178e+00	1.212348e+00	1.219829e+00	1.226910e+00	1.232769e+00	1.238323e+00	1.243361e+00	1.248079e+00	1.252370e+00	1.256912e+00	1.261133e+00	1.265432e+00	1.270507e+00	1.274811e+00	1.280124e+00	1.285130e+00	1.290580e+00	1.296674e+00	1.302528e+00	1.309231e+00	1.316427e+00	1.325093e+00	1.338817e+00	1.342643e+00	1.362113e+00	1.437076e+00	1.412636e+00	1.409521e+00	1.414970e+00	1.416207e+00	1.417952e+00	1.419722e+00	1.422519e+00	1.424306e+00	1.426986e+00	1.430208e+00	1.432373e+00	1.438866e+00	1.438908e+00	1.448067e+00	1.450590e+00	1.448357e+00	1.456239e+00	1.446267e+00	1.448624e+00	1.440265e+00	1.414968e+00	1.398796e+00	1.368548e+00	1.334204e+00	1.306681e+00	1.255361e+00	1.223894e+00	1.211304e+00	1.190320e+00	1.194441e+00	1.190620e+00	1.195943e+00	1.209986e+00	1.214988e+00	1.222541e+00	1.227054e+00	1.228860e+00	1.227515e+00	1.225079e+00	1.223158e+00	1.216597e+00	1.214804e+00	1.213913e+00	1.211776e+00	1.217937e+00	1.221935e+00	1.228278e+00	1.238609e+00	1.245245e+00	1.251097e+00	1.259653e+00	1.259684e+00	1.258515e+00	1.255219e+00	1.243645e+00	1.232123e+00	1.219809e+00	1.199768e+00	1.186540e+00	1.177758e+00	1.162933e+00	1.166759e+00	1.176329e+00	1.184966e+00	1.203881e+00	1.217723e+00	1.226902e+00	1.244033e+00	1.243830e+00	1.230604e+00	1.218790e+00	1.201960e+00	1.142333e+00	9.890012e-01	8.293640e-01	7.899397e-01	8.515035e-01	9.003103e-01	9.974721e-01	1.143438e+00	1.188775e+00	1.266901e+00	1.344277e+00	1.385623e+00	1.433354e+00	1.475850e+00	1.500125e+00	1.521339e+00	1.538457e+00	1.545744e+00	1.555077e+00	1.560685e+00	1.573504e+00	1.596550e+00	1.623783e+00	1.624969e+00	1.708614e+00	
VECTORS Momentum double
1.461293e+01	2.478975e+02	0.0	1.735316e+02	1.856819e+02	0.0	2.096654e+02	1.691627e+02	0.0	2.380363e+02	1.485174e+02	0.0	2.573970e+02	1.363355e+02	0.0	2.687115e+02	1.221228e+02	0.0	2.747813e+02	1.141861e+02	0.0	2.800434e+02	1.069436e+02	0.0	2.829661e+02	1.026056e+02	0.0	2.853378e+02	9.776498e+01	0.0	2.887262e+02	9.479639e+01	0.0	2.907977e+02	9.130015e+01	0.0	2.930178e+02	8.915268e+01	0.0	2.975684e+02	8.583067e+01	0.0	2.997981e+02	8.016592e+01	0.0	3.023016e+02	7.035989e+01	0.0	2.992479e+02	5.539516e+01	0.0	2.956441e+02	4.196999e+01	0.0	2.895814e+02	2.849086e+01	0.0	2.818345e+02	1.657067e+01	0.0	2.779167e+02	9.641224e+00	0.0	2.754615e+02	4.676085e+00	0.0	2.746377e+02	1.847203e+00	0.0	2.771263e+02	2.486605e+00	0.0	2.788325e+02	3.051868e+00	0.0	2.825950e+02	5.231172e+00	0.0	2.882267e+02	9.123937e+00	0.0	2.901337e+02	1.190676e+01	0.0	3.040174e+02	1.876014e+01	0.0	3.046258e+02	2.385076e+01	0.0	3.013220e+02	2.549233e+01	0.0	3.024949e+02	2.909504e+01	0.0	3.032627e+02	3.110224e+01	0.0	3.049283e+02	3.150461e+01	0.0	3.066388e+02	3.198738e+01	0.0	3.089885e+02	3.200193e+01	0.0	3.104554e+02	3.031831e+01	0.0	3.117883e+02	2.907740e+01	0.0	3.129830e+02	2.805918e+01	0.0	3.135196e+02	2.635238e+01	0.0	3.143886e+02	2.575434e+01	0.0	3.148955e+02	2.473966e+01	0.0	3.152321e+02	2.384083e+01	0.0	3.157888e+02	2.355584e+01	0.0	3.162168e+02	2.305873e+01	0.0	3.171599e+02	2.262140e+01	0.0	3.173224e+02	2.073909e+01	0.0	3.179508e+02	1.919112e+01	0.0	3.182949e+02	1.610846e+01	0.0	3.165482e+02	1.087431e+01	0.0	3.168188e+02	8.320090e+00	0.0	3.132364e+02	4.545303e-01	0.0	3.091205e+02	-6.928586e+00	0.0	3.061538e+02	-1.280184e+01	0.0	2.980713e+02	-2.203964e+01	0.0	2.954627e+02	-2.604420e+01	0.0	2.897272e+02	-3.130977e+01	0.0	2.840741e+02	-3.623191e+01	0.0	2.813365e+02	-3.791950e+01	0.0	2.781466e+02	-3.886521e+01	0.0	2.798876e+02	-4.184510e+01	0.0	2.788576e+02	-3.852688e+01	0.0	2.792908e+02	-3.840145e+01	0.0	2.795804e+02	-3.816426e+01	0.0	2.790072e+02	-3.682535e+01	0.0	2.783056e+02	-3.602511e+01	0.0	2.780337e+02	-3.570554e+01	0.0	2.780206e+02	-3.536816e+01	0.0	2.779507e+02	-3.581043e+01	0.0	2.773380e+02	-3.682000e+01	0.0	2.771828e+02	-3.741615e+01	0.0	2.764997e+02	-3.939600e+01	0.0	2.749441e+02	-4.118338e+01	0.0	2.735019e+02	-4.218203e+01	0.0	2.714448e+02	-4.363620e+01	0.0	2.695906e+02	-4.423019e+01	0.0	2.675864e+02	-4.484169e+01	0.0	2.654452e+02	-4.500784e+01	0.0	2.635868e+02	-4.481991e+01	0.0	2.617353e+02	-4.461752e+01	0.0	2.601954e+02	-4.440234e+01	0.0	2.586418e+02	-4.416311e+01	0.0	2.571993e+02	-4.401476e+01	0.0	2.557094e+02	-4.401948e+01	0.0	2.542190e+02	-4.393716e+01	0.0	2.528430e+02	-4.411353e+01	0.0	2.510539e+02	-4.433655e+01	0.0	2.495208e+02	-4.438795e+01	0.0	2.477126e+02	-4.472744e+01	0.0	2.457633e+02	-4.481560e+01	0.0	2.437567e+02	-4.505564e+01	0.0	2.414359e+02	-4.523273e+01	0.0	2.390005e+02	-4.518563e+01	0.0	2.362928e+02	-4.518674e+01	0.0	2.332898e+02	-4.505280e+01	0.0	2.299529e+02	-4.492909e+01	0.0	2.257333e+02	-4.442312e+01	0.0	2.206541e+02	-4.374836e+01	0.0	2.054284e+02	-4.296866e+01	0.0	2.133502e+02	-1.229809e+01	0.0	2.680092e+02	-1.274467e+01	0.0	2.579895e+02	-8.406066e+00	0.0	2.533415e+02	-5.474780e+00	0.0	2.545338e+02	-4.122137e+00	0.0	2.536524e+02	-2.231244e+00	0.0	2.525302e+02	-4.562118e-01	0.0	2.516708e+02	1.293347e+00	0.0	2.505617e+02	2.802495e+00	0.0	2.493909e+02	4.783007e+00	0.0	2.482731e+02	6.404716e+00	0.0	2.467607e+02	8.185172e+00	0.0	2.450655e+02	1.033618e+01	0.0	2.429203e+02	1.214987e+01	0.0	2.407559e+02	1.618857e+01	0.0	2.387938e+02	1.829444e+01	0.0	2.349600e+02	2.441702e+01	0.0	2.339188e+02	3.119524e+01	0.0	2.330654e+02	3.568481e+01	0.0	2.316894e+02	4.565231e+01	0.0	2.337757e+02	5.174208e+01	0.0	2.337464e+02	6.253690e+01	0.0	2.389959e+02	7.481500e+01	0.0	2.493317e+02	8.004901e+01	0.0	2.570560e+02	8.625503e+01	0.0	2.684383e+02	8.930420e+01	0.0	2.793626e+02	8.723894e+01	0.0	2.882222e+02	8.666107e+01	0.0	3.009885e+02	7.715975e+01	0.0	3.075274e+02	6.595504e+01	0.0	3.098879e+02	5.970573e+01	0.0	3.141728e+02	4.936482e+01	0.0	3.129819e+02	4.407024e+01	0.0	3.138625e+02	3.783961e+01	0.0	3.133393e+02	3.243386e+01	0.0	3.113246e+02	3.116402e+01	0.0	3.110246e+02	2.898551e+01	0.0	3.100506e+02	2.804723e+01	0.0	3.095964e+02	2.773032e+01	0.0	3.096165e+02	2.742026e+01	0.0	3.101628e+02	2.670247e+01	0.0	3.106529e+02	2.548690e+01	0.0	3.111503e+02	2.482385e+01	0.0	3.121268e+02	2.228936e+01	0.0	3.120117e+02	1.995292e+01	0.0	3.118837e+02	1.802174e+01	0.0	3.119285e+02	1.469987e+01	0.0	3.106455e+02	1.315832e+01	0.0	3.096185e+02	1.141532e+01	0.0	3.080623e+02	9.837634e+00	0.0	3.058844e+02	1.027943e+01	0.0	3.046604e+02	1.086908e+01	0.0	3.034888e+02	1.160942e+01	0.0	3.020047e+02	1.448441e+01	0.0	3.025704e+02	1.682354e+01	0.0	3.029439e+02	1.874367e+01	0.0	3.039546e+02	2.141821e+01	0.0	3.064427e+02	2.204073e+01	0.0	3.084991e+02	2.147972e+01	0.0	3.106356e+02	2.128051e+01	0.0	3.139717e+02	1.804608e+01	0.0	3.151436e+02	1.369149e+01	0.0	3.154172e+02	1.083709e+01	0.0	3.166076e+02	4.173758e+00	0.0	3.149693e+02	-3.923460e-01	0.0	3.120839e+02	-2.928177e+00	0.0	3.099038e+02	-6.224070e+00	0.0	3.054627e+02	-6.036748e+00	0.0	3.020576e+02	-4.458098e+00	0.0	2.995405e+02	-3.749684e+00	0.0	2.966057e+02	1.650307e+00	0.0	2.977772e+02	8.074103e+00	0.0	3.001440e+02	1.013560e+01	0.0	3.003597e+02	1.198165e+01	0.0	3.024910e+02	1.236830e+01	0.0	3.082517e+02	4.928404e+00	0.0	3.072890e+02	-4.303305e+00	0.0	3.045017e+02	-1.560982e+01	0.0	3.192015e+02	-4.313998e+01	0.0	3.158368e+02	-6.026224e+01	0.0	3.181334e+02	-9.166843e+01	0.0	3.108282e+02	-1.264803e+02	0.0	2.965358e+02	-1.293895e+02	0.0	2.801555e+02	-1.463501e+02	0.0	2.586572e+02	-1.516280e+02	0.0	2.414769e+02	-1.455940e+02	0.0	2.247034e+02	-1.432816e+02	0.0	2.076042e+02	-1.344825e+02	0.0	1.963293e+02	-1.204981e+02	0.0	1.876460e+02	-1.095603e+02	0.0	1.801623e+02	-9.865599e+01	0.0	1.752899e+02	-8.799688e+01	0.0	1.698757e+02	-8.219549e+01	0.0	1.622761e+02	-7.791542e+01	0.0	1.467309e+02	-7.718192e+01	0.0	1.202282e+02	-7.390616e+01	0.0	8.303267e+01	-5.811003e+01	0.0	3.571751e+01	-2.654462e+01	0.0	-5.152341e+01	5.220592e+01	0.0	
SCALARS Energy double 1
LOOKUP_TABLE default
3.272742e+05	2.442882e+05	2.402378e+05	2.360555e+05	2.355402e+05	2.341881e+05	2.366803e+05	2.386568e+05	2.400540e+05	2.395750e+05	2.394188e+05	2.377960e+05	2.354510e+05	2.309691e+05	2.231156e+05	2.120604e+05	1.975694e+05	1.858152e+05	1.746044e+05	1.649092e+05	1.599250e+05	1.570806e+05	1.562072e+05	1.583354e+05	1.601546e+05	1.634615e+05	1.692397e+05	1.788818e+05	2.263489e+05	2.671450e+05	2.699776e+05	2.692620e+05	2.657666e+05	2.627712e+05	2.605466e+05	2.580382e+05	2.548619e+05	2.529080e+05	2.513135e+05	2.495263e+05	2.486658e+05	2.473402e+05	2.461367e+05	2.451161e+05	2.433433e+05	2.409882e+05	2.370327e+05	2.331241e+05	2.277938e+05	2.212779e+05	2.167386e+05	2.077017e+05	1.995846e+05	1.927428e+05	1.834791e+05	1.795058e+05	1.732779e+05	1.674412e+05	1.647677e+05	1.653949e+05	1.898222e+05	2.453438e+05	2.627057e+05	2.626058e+05	2.624181e+05	2.631380e+05	2.636570e+05	2.640189e+05	2.641076e+05	2.642385e+05	2.648899e+05	2.650866e+05	2.659890e+05	2.674873e+05	2.685431e+05	2.702024e+05	2.715847e+05	2.730218e+05	2.743921e+05	2.755083e+05	2.765812e+05	2.775460e+05	2.784527e+05	2.792695e+05	2.801394e+05	2.809521e+05	2.817596e+05	2.827449e+05	2.835566e+05	2.845729e+05	2.855246e+05	2.865548e+05	2.877155e+05	2.888146e+05	2.900804e+05	2.914384e+05	2.930665e+05	2.957361e+05	2.958529e+05	3.001784e+05	3.188017e+05	3.130830e+05	3.121774e+05	3.133939e+05	3.136100e+05	3.139229e+05	3.142551e+05	3.147938e+05	3.151163e+05	3.156318e+05	3.162446e+05	3.166256e+05	3.179066e+05	3.178231e+05	3.196870e+05	3.200712e+05	3.195846e+05	3.212544e+05	3.191464e+05	3.198028e+05	3.181439e+05	3.131826e+05	3.103470e+05	3.044582e+05	2.979058e+05	2.927320e+05	2.825462e+05	2.766837e+05	2.743506e+05	2.700864e+05	2.711237e+05	2.701849e+05	2.712909e+05	2.741142e+05	2.749933e+05	2.765230e+05	2.773830e+05	2.777233e+05	2.774433e+05	2.769725e+05	2.766017e+05	2.752726e+05	2.749580e+05	2.747533e+05	2.742922e+05	2.755605e+05	2.762916e+05	2.775297e+05	2.795623e+05	2.807907e+05	2.819255e+05	2.836299e+05	2.835429e+05	2.833463e+05	2.826924e+05	2.803628e+05	2.781431e+05	2.757284e+05	2.717259e+05	2.692215e+05	2.674785e+05	2.644300e+05	2.652995e+05	2.671472e+05	2.687154e+05	2.724754e+05	2.750266e+05	2.766925e+05	2.800866e+05	2.798421e+05	2.771706e+05	2.748786e+05	2.713972e+05	2.591890e+05	2.282039e+05	1.961244e+05	1.881190e+05	2.020638e+05	2.116463e+05	2.320109e+05	2.620358e+05	2.703775e+05	2.860063e+05	3.010737e+05	3.086843e+05	3.179164e+05	3.259761e+05	3.303712e+05	3.343520e+05	3.375483e+05	3.387662e+05	3.405065e+05	3.414171e+05	3.437265e+05	3.480108e+05	3.530381e+05	3.525658e+05	3.709807e+05	
SCALARS Pressure double 1
LOOKUP_TABLE default
1.225861e+05	8.583478e+04	8.243790e+04	7.926334e+04	7.777380e+04	7.665713e+04	7.756298e+04	7.824457e+04	7.876684e+04	7.846044e+04	7.810748e+04	7.721112e+04	7.588476e+04	7.324317e+04	6.924434e+04	6.360392e+04	5.693010e+04	5.151247e+04	4.659996e+04	4.264561e+04	4.054735e+04	3.937231e+04	3.902266e+04	3.979578e+04	4.053568e+04	4.174593e+04	4.401834e+04	4.909447e+04	7.163375e+04	9.102984e+04	9.268014e+04	9.219084e+04	9.046545e+04	8.888172e+04	8.764270e+04	8.619343e+04	8.453674e+04	8.346205e+04	8.256710e+04	8.166160e+04	8.114699e+04	8.045439e+04	7.983844e+04	7.927613e+04	7.836364e+04	7.709525e+04	7.514369e+04	7.313317e+04	7.043726e+04	6.741023e+04	6.505160e+04	6.090000e+04	5.722942e+04	5.398979e+04	5.017657e+04	4.835846e+04	4.577045e+04	4.335252e+04	4.227210e+04	4.319724e+04	5.615898e+04	8.350502e+04	9.145578e+04	9.138459e+04	9.137404e+04	9.178208e+04	9.204918e+04	9.221928e+04	9.226094e+04	9.236765e+04	9.267090e+04	9.280005e+04	9.333457e+04	9.413575e+04	9.478493e+04	9.569519e+04	9.648997e+04	9.732396e+04	9.810368e+04	9.876628e+04	9.937963e+04	9.994422e+04	1.004701e+05	1.009562e+05	1.014651e+05	1.019338e+05	1.024317e+05	1.029869e+05	1.034820e+05	1.040788e+05	1.046470e+05	1.052715e+05	1.059608e+05	1.066391e+05	1.074082e+05	1.082351e+05	1.092379e+05	1.107352e+05	1.117799e+05	1.133657e+05	1.175015e+05	1.157999e+05	1.157598e+05	1.161977e+05	1.163571e+05	1.165742e+05	1.167792e+05	1.170896e+05	1.173098e+05	1.176079e+05	1.179735e+05	1.182496e+05	1.189398e+05	1.190362e+05	1.199529e+05	1.203347e+05	1.201436e+05	1.208666e+05	1.199471e+05	1.200063e+05	1.191274e+05	1.164083e+05	1.143341e+05	1.110394e+05	1.071650e+05	1.039826e+05	9.858724e+04	9.489635e+04	9.340691e+04	9.130037e+04	9.151412e+04	9.129282e+04	9.180295e+04	9.324328e+04	9.388291e+04	9.464629e+04	9.515633e+04	9.536437e+04	9.523590e+04	9.496732e+04	9.475480e+04	9.409212e+04	9.386209e+04	9.379649e+04	9.360890e+04	9.421096e+04	9.469359e+04	9.538123e+04	9.648529e+04	9.727169e+04	9.791347e+04	9.880662e+04	9.890296e+04	9.874483e+04	9.839804e+04	9.721367e+04	9.593523e+04	9.461134e+04	9.252936e+04	9.101761e+04	9.009436e+04	8.864198e+04	8.893412e+04	8.999188e+04	9.104602e+04	9.302858e+04	9.467974e+04	9.580074e+04	9.760761e+04	9.779061e+04	9.644662e+04	9.515166e+04	9.352351e+04	8.762882e+04	7.206150e+04	5.567446e+04	5.171039e+04	5.645671e+04	6.169214e+04	7.082640e+04	8.511734e+04	9.054040e+04	9.863089e+04	1.070551e+05	1.119975e+05	1.172567e+05	1.220990e+05	1.250737e+05	1.275339e+05	1.295344e+05	1.305289e+05	1.316223e+05	1.324142e+05	1.339969e+05	1.367093e+05	1.399502e+05	1.407826e+05	1.477625e+05	
SCALARS Temperature double 1
LOOKUP_TABLE default
2.882056e+02	2.749960e+02	2.702088e+02	2.658651e+02	2.625381e+02	2.608238e+02	2.610523e+02	2.611373e+02	2.612977e+02	2.609241e+02	2.601668e+02	2.592379e+02	2.577890e+02	2.546416e+02	2.504986e+02	2.440295e+02	2.365886e+02	2.295636e+02	2.228080e+02	2.173103e+02	2.139178e+02	2.119685e+02	2.114022e+02	2.124336e+02	2.136240e+02	2.151592e+02	2.183068e+02	2.277623e+02	2.542528e+02	2.687989e+02	2.702892e+02	2.697585e+02	2.685893e+02	2.673235e+02	2.662191e+02	2.648271e+02	2.634355e+02	2.624283e+02	2.615500e+02	2.607848e+02	2.602219e+02	2.595893e+02	2.590398e+02	2.584705e+02	2.576280e+02	2.563454e+02	2.545841e+02	2.525614e+02	2.497977e+02	2.469652e+02	2.441580e+02	2.397990e+02	2.356891e+02	2.314323e+02	2.271242e+02	2.244581e+02	2.209959e+02	2.175182e+02	2.159428e+02	2.190266e+02	2.414661e+02	2.685685e+02	2.731170e+02	2.730363e+02	2.731578e+02	2.735056e+02	2.736954e+02	2.737917e+02	2.738151e+02	2.739492e+02	2.741147e+02	2.742468e+02	2.747234e+02	2.753198e+02	2.759175e+02	2.766110e+02	2.772587e+02	2.779402e+02	2.785498e+02	2.790984e+02	2.795720e+02	2.800212e+02	2.804304e+02	2.808215e+02	2.812173e+02	2.815709e+02	2.819848e+02	2.823810e+02	2.827805e+02	2.832310e+02	2.836678e+02	2.841556e+02	2.846722e+02	2.852067e+02	2.857930e+02	2.864188e+02	2.871821e+02	2.881341e+02	2.900237e+02	2.899337e+02	2.848354e+02	2.855672e+02	2.860992e+02	2.860755e+02	2.862178e+02	2.863988e+02	2.865448e+02	2.867417e+02	2.869203e+02	2.871091e+02	2.873528e+02	2.875902e+02	2.879634e+02	2.881884e+02	2.885709e+02	2.889860e+02	2.889716e+02	2.891373e+02	2.889160e+02	2.885882e+02	2.881373e+02	2.865945e+02	2.847421e+02	2.826490e+02	2.798085e+02	2.772180e+02	2.735788e+02	2.701071e+02	2.686311e+02	2.672017e+02	2.669033e+02	2.671123e+02	2.674094e+02	2.684525e+02	2.691812e+02	2.696935e+02	2.701497e+02	2.703424e+02	2.702741e+02	2.700477e+02	2.698665e+02	2.694243e+02	2.691625e+02	2.691716e+02	2.691070e+02	2.694679e+02	2.699622e+02	2.705183e+02	2.713671e+02	2.721209e+02	2.726351e+02	2.732534e+02	2.735131e+02	2.733294e+02	2.730846e+02	2.723086e+02	2.712405e+02	2.701978e+02	2.686659e+02	2.672228e+02	2.664845e+02	2.655309e+02	2.655324e+02	2.665047e+02	2.676612e+02	2.691927e+02	2.708564e+02	2.720128e+02	2.733268e+02	2.738838e+02	2.730229e+02	2.719681e+02	2.710574e+02	2.672296e+02	2.538264e+02	2.338521e+02	2.280417e+02	2.309721e+02	2.387085e+02	2.473573e+02	2.593199e+02	2.653218e+02	2.712068e+02	2.774271e+02	2.815746e+02	2.849802e+02	2.882040e+02	2.904485e+02	2.920315e+02	2.933123e+02	2.941709e+02	2.948545e+02	2.955629e+02	2.966587e+02	2.982950e+02	3.002449e+02	3.018103e+02	3.012664e+02	
SCALARS Mach double 1
LOOKUP_TABLE default
4.924434e-01	7.030831e-01	7.691993e-01	8.264528e-01	8.689313e-01	8.904313e-01	8.875803e-01	8.865173e-01	8.845121e-01	8.891802e-01	8.986087e-01	9.101138e-01	9.279349e-01	9.661821e-01	1.015698e+00	1.091576e+00	1.177398e+00	1.257656e+00	1.334637e+00	1.397430e+00	1.436341e+00	1.458777e+00	1.465307e+00	1.453418e+00	1.439719e+00	1.422085e+00	1.386029e+00	1.278182e+00	9.708667e-01	7.880332e-01	7.681180e-01	7.752437e-01	7.908124e-01	8.074775e-01	8.218679e-01	8.398217e-01	8.575763e-01	8.703167e-01	8.813536e-01	8.909175e-01	8.979238e-01	9.057684e-01	9.125589e-01	9.195714e-01	9.299067e-01	9.455535e-01	9.668749e-01	9.911503e-01	1.023995e+00	1.057326e+00	1.090082e+00	1.140512e+00	1.187704e+00	1.236346e+00	1.285451e+00	1.315828e+00	1.355308e+00	1.395051e+00	1.413097e+00	1.377799e+00	1.121279e+00	7.910869e-01	7.294702e-01	7.305902e-01	7.289041e-01	7.240630e-01	7.214130e-01	7.200657e-01	7.197377e-01	7.178592e-01	7.155353e-01	7.136778e-01	7.069499e-01	6.984737e-01	6.899108e-01	6.798887e-01	6.704389e-01	6.603988e-01	6.513285e-01	6.430923e-01	6.359210e-01	6.290683e-01	6.227793e-01	6.167248e-01	6.105549e-01	6.050046e-01	5.984602e-01	5.921457e-01	5.857272e-01	5.784275e-01	5.712819e-01	5.632238e-01	5.545911e-01	5.455491e-01	5.354959e-01	5.245993e-01	5.110610e-01	4.937614e-01	4.578600e-01	4.596233e-01	5.518416e-01	5.393856e-01	5.301871e-01	5.305986e-01	5.281193e-01	5.249500e-01	5.223843e-01	5.189072e-01	5.157362e-01	5.123681e-01	5.079944e-01	5.037050e-01	4.968995e-01	4.927612e-01	4.856575e-01	4.778533e-01	4.781244e-01	4.749808e-01	4.791751e-01	4.853341e-01	4.937033e-01	5.215079e-01	5.534154e-01	5.878459e-01	6.323194e-01	6.710345e-01	7.230406e-01	7.705667e-01	7.902582e-01	8.090720e-01	8.129694e-01	8.102397e-01	8.063533e-01	7.926220e-01	7.829520e-01	7.761130e-01	7.699946e-01	7.674018e-01	7.683214e-01	7.713653e-01	7.737956e-01	7.797114e-01	7.832015e-01	7.830798e-01	7.839398e-01	7.791296e-01	7.725133e-01	7.650294e-01	7.535258e-01	7.432207e-01	7.361418e-01	7.275748e-01	7.239577e-01	7.265179e-01	7.299194e-01	7.406421e-01	7.552481e-01	7.693476e-01	7.897970e-01	8.087956e-01	8.184218e-01	8.307692e-01	8.307498e-01	8.181604e-01	8.030508e-01	7.827995e-01	7.604599e-01	7.447040e-01	7.265538e-01	7.187751e-01	7.307761e-01	7.453161e-01	7.577352e-01	8.087072e-01	9.759934e-01	1.208718e+00	1.274999e+00	1.241596e+00	1.153062e+00	1.052730e+00	9.091005e-01	8.334636e-01	7.557057e-01	6.679668e-01	6.049462e-01	5.493946e-01	4.924720e-01	4.494623e-01	4.169154e-01	3.888777e-01	3.690413e-01	3.525371e-01	3.346668e-01	3.051535e-01	2.553036e-01	1.796784e-01	7.863408e-02	1.233752e-01	
SCALARS Pressure_Coefficient double 1
LOOKUP_TABLE default