# vtk DataFile Version 3.0
vtk output
ASCII
DATASET UNSTRUCTURED_GRID
POINTS 1829 double
1.000000e+02	0.000000e+00	0.0	9.917900e+01	1.278772e+01	0.0	9.672949e+01	2.536546e+01	0.0	9.269168e+01	3.752670e+01	0.0	8.713187e+01	4.907176e+01	0.0	8.014136e+01	5.981105e+01	0.0	7.183494e+01	6.956826e+01	0.0	6.234898e+01	7.818315e+01	0.0	5.183926e+01	8.551428e+01	0.0	4.047833e+01	9.144126e+01	0.0	2.845276e+01	9.586679e+01	0.0	1.595999e+01	9.871818e+01	0.0	3.205158e+00	9.994862e+01	0.0	-9.602303e+00	9.953791e+01	0.0	-2.225209e+01	9.749279e+01	0.0	-3.453651e+01	9.384684e+01	0.0	-4.625383e+01	8.865993e+01	0.0	-5.721167e+01	8.201723e+01	0.0	-6.723009e+01	7.402780e+01	0.0	-7.614460e+01	6.482284e+01	0.0	-8.380881e+01	5.455349e+01	0.0	-9.009689e+01	4.338837e+01	0.0	-9.490557e+01	3.151082e+01	0.0	-9.815592e+01	1.911586e+01	0.0	-9.979454e+01	6.407022e+00	0.0	-9.979454e+01	-6.407022e+00	0.0	-9.815592e+01	-1.911586e+01	0.0	-9.490557e+01	-3.151082e+01	0.0	-9.009689e+01	-4.338837e+01	0.0	-8.380881e+01	-5.455349e+01	0.0	-7.614460e+01	-6.482284e+01	0.0	-6.723009e+01	-7.402780e+01	0.0	-5.721167e+01	-8.201723e+01	0.0	-4.625383e+01	-8.865993e+01	0.0	-3.453651e+01	-9.384684e+01	0.0	-2.225209e+01	-9.749279e+01	0.0	-9.602303e+00	-9.953791e+01	0.0	3.205158e+00	-9.994862e+01	0.0	1.595999e+01	-9.871818e+01	0.0	2.845276e+01	-9.586679e+01	0.0	4.047833e+01	-9.144126e+01	0.0	5.183926e+01	-8.551428e+01	0.0	6.234898e+01	-7.818315e+01	0.0	7.183494e+01	-6.956826e+01	0.0	8.014136e+01	-5.981105e+01	0.0	8.713187e+01	-4.907176e+01	0.0	9.269168e+01	-3.752670e+01	0.0	9.672949e+01	-2.536546e+01	0.0	9.917900e+01	-1.278772e+01	0.0	0.000000e+00	0.000000e+00	0.0	3.083746e-03	3.935798e-03	0.0	6.282312e-03	8.018142e-03	0.0	1.064561e-02	1.115988e-02	0.0	1.517833e-02	1.440027e-02	0.0	2.038741e-02	1.689099e-02	0.0	2.578940e-02	1.945219e-02	0.0	3.161732e-02	2.153659e-02	0.0	3.766346e-02	2.364165e-02	0.0	4.405783e-02	2.536670e-02	0.0	5.070358e-02	2.698844e-02	0.0	5.766897e-02	2.821885e-02	0.0	6.491034e-02	2.910171e-02	0.0	7.242799e-02	2.966311e-02	0.0	8.020084e-02	2.962085e-02	0.0	8.821539e-02	2.944188e-02	0.0	9.646943e-02	2.912139e-02	0.0	1.049726e-01	2.897917e-02	0.0	1.137259e-01	2.897579e-02	0.0	1.227148e-01	2.937660e-02	0.0	1.319465e-01	2.999276e-02	0.0	1.414035e-01	3.088425e-02	0.0	1.510827e-01	3.208470e-02	0.0	1.610066e-01	3.334029e-02	0.0	1.711161e-01	3.504630e-02	0.0	1.814697e-01	3.679348e-02	0.0	1.920279e-01	3.877882e-02	0.0	2.027865e-01	4.101018e-02	0.0	2.137789e-01	4.329006e-02	0.0	2.249761e-01	4.573459e-02	0.0	2.363946e-01	4.824369e-02	0.0	2.480587e-01	5.066686e-02	0.0	2.600092e-01	5.276572e-02	0.0	2.721678e-01	5.490113e-02	0.0	2.846307e-01	5.625401e-02	0.0	2.973353e-01	5.725220e-02	0.0	3.102295e-01	5.802115e-02	0.0	3.233214e-01	5.738951e-02	0.0	3.365798e-01	5.674984e-02	0.0	3.499510e-01	5.556792e-02	0.0	3.634401e-01	5.405171e-02	0.0	3.770638e-01	5.254904e-02	0.0	3.908326e-01	5.128699e-02	0.0	4.047080e-01	5.001518e-02	0.0	4.187110e-01	4.954182e-02	0.0	4.328179e-01	4.962736e-02	0.0	4.469833e-01	4.984560e-02	0.0	4.611324e-01	5.130743e-02	0.0	4.753182e-01	5.277304e-02	0.0	4.895011e-01	5.445586e-02	0.0	5.036742e-01	5.628737e-02	0.0	5.178456e-01	5.806384e-02	0.0	5.320593e-01	5.922788e-02	0.0	5.462363e-01	6.038890e-02	0.0	5.603883e-01	6.075113e-02	0.0	5.744938e-01	6.053684e-02	0.0	5.885149e-01	6.023983e-02	0.0	6.023912e-01	5.897793e-02	0.0	6.161609e-01	5.772572e-02	0.0	6.297767e-01	5.617593e-02	0.0	6.432342e-01	5.440019e-02	0.0	6.565482e-01	5.264176e-02	0.0	6.696954e-01	5.081281e-02	0.0	6.826776e-01	4.900682e-02	0.0	6.954884e-01	4.725386e-02	0.0	7.081191e-01	4.555975e-02	0.0	7.205560e-01	4.389162e-02	0.0	7.327959e-01	4.228647e-02	0.0	7.448268e-01	4.071230e-02	0.0	7.566421e-01	3.917213e-02	0.0	7.682359e-01	3.766911e-02	0.0	7.796019e-01	3.619559e-02	0.0	7.907331e-01	3.473750e-02	0.0	8.016276e-01	3.331044e-02	0.0	8.122772e-01	3.188130e-02	0.0	8.226821e-01	3.047133e-02	0.0	8.328366e-01	2.905737e-02	0.0	8.427386e-01	2.763680e-02	0.0	8.523902e-01	2.623167e-02	0.0	8.617824e-01	2.478628e-02	0.0	8.709270e-01	2.337900e-02	0.0	8.798139e-01	2.194264e-02	0.0	8.884529e-01	2.053231e-02	0.0	8.968440e-01	1.914029e-02	0.0	9.049863e-01	1.774917e-02	0.0	9.128887e-01	1.639903e-02	0.0	9.205471e-01	1.505049e-02	0.0	9.279702e-01	1.373563e-02	0.0	9.351599e-01	1.244781e-02	0.0	9.421180e-01	1.117711e-02	0.0	9.488526e-01	9.946591e-03	0.0	9.553620e-01	8.725435e-03	0.0	9.616563e-01	7.544648e-03	0.0	9.677356e-01	6.382113e-03	0.0	9.736078e-01	5.255351e-03	0.0	9.792749e-01	4.149826e-03	0.0	9.847437e-01	3.076085e-03	0.0	9.900178e-01	2.028022e-03	0.0	9.951014e-01	1.001979e-03	0.0	1.000000e+00	0.000000e+00	0.0	9.950058e-01	2.388189e-04	0.0	9.898222e-01	4.389114e-04	0.0	9.844442e-01	5.860324e-04	0.0	9.788677e-01	6.872748e-04	0.0	9.730884e-01	7.634378e-04	0.0	9.671013e-01	7.803963e-04	0.0	9.609025e-01	7.743623e-04	0.0	9.544873e-01	7.023146e-04	0.0	9.478514e-01	6.141615e-04	0.0	9.409921e-01	4.302893e-04	0.0	9.339033e-01	2.402695e-04	0.0	9.265851e-01	-6.122759e-05	0.0	9.190310e-01	-3.969146e-04	0.0	9.112431e-01	-8.450173e-04	0.0	9.032231e-01	-1.481211e-03	0.0	8.949576e-01	-2.136869e-03	0.0	8.864960e-01	-3.277826e-03	0.0	8.777935e-01	-4.518099e-03	0.0	8.689020e-01	-6.115746e-03	0.0	8.598530e-01	-8.243432e-03	0.0	8.505570e-01	-1.042922e-02	0.0	8.412421e-01	-1.348413e-02	0.0	8.316897e-01	-1.662980e-02	0.0	8.219179e-01	-1.991581e-02	0.0	8.119206e-01	-2.331870e-02	0.0	8.016236e-01	-2.658923e-02	0.0	7.909366e-01	-2.941901e-02	0.0	7.800152e-01	-3.231085e-02	0.0	7.685966e-01	-3.392817e-02	0.0	7.569353e-01	-3.552050e-02	0.0	7.449988e-01	-3.664748e-02	0.0	7.328040e-01	-3.741602e-02	0.0	7.203961e-01	-3.821470e-02	0.0	7.077919e-01	-3.917467e-02	0.0	6.949896e-01	-4.014973e-02	0.0	6.820743e-01	-4.178039e-02	0.0	6.690349e-01	-4.388969e-02	0.0	6.558376e-01	-4.607102e-02	0.0	6.427285e-01	-4.944782e-02	0.0	6.294772e-01	-5.286126e-02	0.0	6.161162e-01	-5.638742e-02	0.0	6.026626e-01	-6.004043e-02	0.0	5.891038e-01	-6.372198e-02	0.0	5.752596e-01	-6.660660e-02	0.0	5.613083e-01	-6.939039e-02	0.0	5.472045e-01	-7.152215e-02	0.0	5.328866e-01	-7.241589e-02	0.0	5.185311e-01	-7.331197e-02	0.0	5.041382e-01	-7.293872e-02	0.0	4.897356e-01	-7.237824e-02	0.0	4.753509e-01	-7.162976e-02	0.0	4.610043e-01	-7.060107e-02	0.0	4.466953e-01	-6.957507e-02	0.0	4.324140e-01	-6.899922e-02	0.0	4.181978e-01	-6.846223e-02	0.0	4.040592e-01	-6.827403e-02	0.0	3.900114e-01	-6.850715e-02	0.0	3.760725e-01	-6.873846e-02	0.0	3.622654e-01	-6.930134e-02	0.0	3.485932e-01	-6.986835e-02	0.0	3.350658e-01	-7.037455e-02	0.0	3.216947e-01	-7.081667e-02	0.0	3.084930e-01	-7.125318e-02	0.0	2.954642e-01	-7.122567e-02	0.0	2.826248e-01	-7.119191e-02	0.0	2.699888e-01	-7.093617e-02	0.0	2.575648e-01	-7.044495e-02	0.0	2.453554e-01	-6.996221e-02	0.0	2.333883e-01	-6.911356e-02	0.0	2.216494e-01	-6.826608e-02	0.0	2.101556e-01	-6.729336e-02	0.0	1.989154e-01	-6.615507e-02	0.0	1.879163e-01	-6.504122e-02	0.0	1.772005e-01	-6.362707e-02	0.0	1.667360e-01	-6.220618e-02	0.0	1.565462e-01	-6.065601e-02	0.0	1.466549e-01	-5.883759e-02	0.0	1.370129e-01	-5.706501e-02	0.0	1.277207e-01	-5.487661e-02	0.0	1.187012e-01	-5.262725e-02	0.0	1.099667e-01	-5.030148e-02	0.0	1.016023e-01	-4.759800e-02	0.0	9.347625e-02	-4.497157e-02	0.0	8.567454e-02	-4.217027e-02	0.0	7.814492e-02	-3.933630e-02	0.0	7.085276e-02	-3.656314e-02	0.0	6.382679e-02	-3.376802e-02	0.0	5.702100e-02	-3.106049e-02	0.0	5.039890e-02	-2.852428e-02	0.0	4.398479e-02	-2.608617e-02	0.0	3.776812e-02	-2.376318e-02	0.0	3.175403e-02	-2.152937e-02	0.0	2.602249e-02	-1.916889e-02	0.0	2.055586e-02	-1.674084e-02	0.0	1.547330e-02	-1.398865e-02	0.0	1.081218e-02	-1.094543e-02	0.0	6.502100e-03	-7.733779e-03	0.0	2.766945e-03	-4.133935e-03	0.0	7.765580e-01	-1.042520e-01	0.0	7.553360e-01	-9.916981e-02	0.0	7.627682e-01	-1.228218e-01	0.0	8.663626e+01	2.691665e+01	0.0	8.192404e+01	3.583103e+01	0.0	7.587686e+01	2.548144e+01	0.0	7.285957e+01	-1.241215e+01	0.0	7.595435e+01	-2.499846e+01	0.0	8.627025e+01	-1.563937e+01	0.0	9.083226e+01	-4.876582e+00	0.0	2.671260e+01	2.292112e+01	0.0	3.792716e+01	2.675982e+01	0.0	2.997858e+01	3.376231e+01	0.0	7.272400e+01	3.385616e+01	0.0	7.310969e+01	-3.507544e+01	0.0	7.667306e+01	-4.219014e+01	0.0	8.241128e+01	-3.582804e+01	0.0	8.713998e+01	-2.765296e+01	0.0	5.557692e+01	2.291857e+01	0.0	4.862435e+01	2.975160e+01	0.0	4.538395e+01	1.977609e+01	0.0	5.720674e+01	-4.958115e+01	0.0	6.592893e+01	-5.463728e+01	0.0	6.532517e+01	-4.249487e+01	0.0	6.814439e+01	5.891146e+01	0.0	7.267193e+01	5.000454e+01	0.0	5.670130e+01	6.463047e+01	0.0	5.363172e+01	-5.955497e+01	0.0	4.618428e+01	-6.922463e+01	0.0	5.566229e+01	-6.979776e+01	0.0	5.140122e+01	7.519225e+01	0.0	2.708470e+01	5.267632e+01	0.0	2.012370e+01	6.281003e+01	0.0	1.618129e+01	4.996960e+01	0.0	6.486128e+01	-6.543181e+01	0.0	2.875421e+01	7.371114e+01	0.0	4.083778e+01	7.886591e+01	0.0	3.040009e+01	8.514012e+01	0.0	3.666807e+01	-6.997041e+01	0.0	2.952847e+01	-7.612095e+01	0.0	4.085726e+01	-7.944941e+01	0.0	5.128521e+01	-7.659426e+01	0.0	-4.969372e+00	4.208612e+01	0.0	3.957305e+00	3.332976e+01	0.0	5.788628e+00	4.578161e+01	0.0	8.659240e+00	7.663097e+01	0.0	1.792640e+01	7.403206e+01	0.0	1.565537e+01	8.168276e+01	0.0	1.320354e+01	4.010047e+01	0.0	4.700609e+00	5.540887e-01	0.0	6.267244e+00	-5.436206e-01	0.0	6.204503e+00	1.147064e+00	0.0	4.617811e+00	2.350044e+00	0.0	3.431670e+00	3.513854e+00	0.0	2.952105e+00	2.363968e+00	0.0	2.715271e+00	8.168996e-01	0.0	2.231289e+00	4.413496e-01	0.0	2.724608e+00	2.546525e-01	0.0	1.205183e+00	3.546640e-01	0.0	1.083626e+00	3.609641e-01	0.0	1.117688e+00	2.614134e-01	0.0	1.159679e+00	1.088764e-01	0.0	1.185061e+00	3.238811e-02	0.0	1.258139e+00	8.611557e-02	0.0	1.011448e+00	9.901137e-04	0.0	1.005233e+00	-1.076174e-03	0.0	1.009972e+00	-4.860329e-03	0.0	1.010385e+00	7.979480e-03	0.0	1.006372e+00	4.061756e-03	0.0	1.001769e+00	3.648976e-03	0.0	9.721785e-01	4.935747e-02	0.0	9.575788e-01	4.412346e-02	0.0	9.683084e-01	3.511106e-02	0.0	1.060439e+00	1.954557e-01	0.0	9.988157e-01	1.867053e-01	0.0	1.026662e+00	1.313696e-01	0.0	9.581247e-01	3.150316e-02	0.0	9.579647e-01	2.248224e-02	0.0	
[...]
POINT_DATA 1829

SCALARS Density double 1
LOOKUP_TABLE default
1.291756e+00	1.291813e+00	1.292092e+00	1.292202e+00	1.292137e+00	1.292094e+00	1.292070e+00	1.292027e+00	1.291981e+00	1.291936e+00	1.291901e+00	1.291886e+00	1.291891e+00	1.291931e+00	1.291996e+00	1.292060e+00	1.292118e+00	1.292163e+00	1.292198e+00	1.292223e+00	1.292243e+00	1.292257e+00	1.292268e+00	1.292277e+00	1.292284e+00	1.292293e+00	1.292301e+00	1.292311e+00	1.292323e+00	1.292338e+00	1.292359e+00	1.292385e+00	1.292418e+00	1.292461e+00	1.292512e+00	1.292569e+00	1.292630e+00	1.292673e+00	1.292683e+00	1.292663e+00	1.292623e+00	1.292571e+00	1.292517e+00	1.292463e+00	1.292408e+00	1.292373e+00	1.292388e+00	1.292295e+00	1.292014e+00	1.571036e+00	1.248682e+00	1.180151e+00	1.089367e+00	1.026384e+00	9.639927e-01	9.416367e-01	9.061056e-01	8.779266e-01	8.330155e-01	7.907378e-01	7.307824e-01	6.807182e-01	6.119199e-01	5.656960e-01	5.628587e-01	6.693942e-01	1.022517e+00	1.223991e+00	1.211415e+00	1.214885e+00	1.211792e+00	1.205802e+00	1.204980e+00	1.197607e+00	1.183799e+00	1.176533e+00	1.156336e+00	1.135105e+00	1.110077e+00	1.073246e+00	1.023270e+00	9.832678e-01	9.212372e-01	8.544878e-01	8.208224e-01	7.359759e-01	6.667750e-01	6.406357e-01	6.088734e-01	6.284754e-01	8.347666e-01	1.093231e+00	1.158446e+00	1.178030e+00	1.168467e+00	1.175212e+00	1.161841e+00	1.127897e+00	1.105426e+00	1.070855e+00	1.016328e+00	9.703962e-01	9.205953e-01	8.565102e-01	8.237671e-01	7.926365e-01	7.987188e-01	8.975149e-01	9.882293e-01	1.034098e+00	1.060228e+00	1.079304e+00	1.096474e+00	1.109593e+00	1.119494e+00	1.128140e+00	1.135816e+00	1.141600e+00	1.147201e+00	1.152401e+00	1.156856e+00	1.161386e+00	1.165294e+00	1.169412e+00	1.173481e+00	1.177342e+00	1.182048e+00	1.186290e+00	1.191459e+00	1.196996e+00	1.201772e+00	1.208073e+00	1.212557e+00	1.218066e+00	1.222972e+00	1.227769e+00	1.233047e+00	1.237296e+00	1.242320e+00	1.246930e+00	1.251501e+00	1.256424e+00	1.261089e+00	1.265890e+00	1.271235e+00	1.276237e+00	1.285089e+00	1.279934e+00	1.296227e+00	1.422573e+00	1.375748e+00	1.388309e+00	1.389752e+00	1.392382e+00	1.395317e+00	1.397251e+00	1.400606e+00	1.402535e+00	1.405636e+00	1.408842e+00	1.411862e+00	1.418527e+00	1.418418e+00	1.427689e+00	1.430308e+00	1.427721e+00	1.434033e+00	1.423921e+00	1.425453e+00	1.416429e+00	1.388201e+00	1.367070e+00	1.333525e+00	1.289715e+00	1.259848e+00	1.201471e+00	1.179218e+00	1.194696e+00	1.199623e+00	1.233186e+00	1.267850e+00	1.288052e+00	1.315234e+00	1.335109e+00	1.328398e+00	1.343701e+00	1.335524e+00	1.301755e+00	1.281232e+00	1.253404e+00	1.201324e+00	1.015958e+00	8.144142e-01	7.684332e-01	8.388119e-01	9.053007e-01	9.834695e-01	1.073597e+00	1.117605e+00	1.168281e+00	1.223070e+00	1.249446e+00	1.266203e+00	1.284739e+00	1.279038e+00	1.273782e+00	1.264465e+00	1.240195e+00	1.222489e+00	1.204062e+00	1.170805e+00	1.153640e+00	1.147041e+00	1.134944e+00	1.138524e+00	1.132827e+00	1.136986e+00	1.148969e+00	1.150813e+00	1.160630e+00	1.159490e+00	1.164991e+00	1.174868e+00	1.173261e+00	1.187537e+00	1.189947e+00	1.201088e+00	1.230209e+00	1.237711e+00	1.267488e+00	1.299031e+00	1.320497e+00	1.355003e+00	1.379205e+00	1.402345e+00	1.428906e+00	1.447695e+00	1.461656e+00	1.475702e+00	1.481318e+00	1.491559e+00	1.505025e+00	1.521076e+00	1.558009e+00	1.595840e+00	1.612184e+00	1.702539e+00	1.291788e+00	1.287762e+00	1.295148e+00	1.292137e+00	1.292147e+00	1.292109e+00	1.292187e+00	1.292323e+00	1.292175e+00	1.291941e+00	1.291881e+00	1.292003e+00	1.291850e+00	1.292144e+00	1.292382e+00	1.292374e+00	1.292354e+00	1.292326e+00	1.292112e+00	1.292055e+00	1.292063e+00	1.292457e+00	1.292439e+00	1.292400e+00	1.292060e+00	1.292084e+00	1.292012e+00	1.292514e+00	1.292574e+00	1.292525e+00	1.291982e+00	1.291793e+00	1.291764e+00	1.291649e+00	1.292475e+00	1.291863e+00	1.291930e+00	1.291892e+00	1.292632e+00	1.292675e+00	1.292613e+00	1.292563e+00	1.291441e+00	1.291122e+00	1.291465e+00	1.291787e+00	1.291803e+00	1.291823e+00	1.291487e+00	1.289756e+00	1.290759e+00	1.289835e+00	1.291845e+00	1.288759e+00	1.288697e+00	1.292749e+00	1.292327e+00	1.287811e+00	1.297867e+00	1.292696e+00	1.306056e+00	1.315484e+00	1.283200e+00	1.291334e+00	1.300810e+00	1.323800e+00	1.341267e+00	1.283483e+00	1.289297e+00	1.293146e+00	1.288434e+00	1.275427e+00	1.278495e+00	1.305096e+00	1.301840e+00	1.311208e+00	1.269312e+00	1.263087e+00	1.271370e+00	1.274954e+00	1.271620e+00	1.276782e+00	1.263420e+00	1.257553e+00	1.264384e+00	1.252425e+00	1.238238e+00	1.230653e+00	1.235153e+00	1.254456e+00	1.241456e+00	1.259498e+00	1.239329e+00	1.224177e+00	1.229774e+00	1.288457e+00	1.272052e+00	1.253283e+00	1.220137e+00	1.225914e+00	1.232321e+00	1.210670e+00	1.207739e+00	1.407362e+00	1.406541e+00	1.416291e+00	1.291992e+00	1.290795e+00	1.311694e+00	1.249917e+00	1.268226e+00	1.190837e+00	1.188590e+00	1.173065e+00	1.233659e+00	1.228708e+00	1.220718e+00	1.098936e+00	1.061718e+00	1.094067e+00	1.115355e+00	1.206658e+00	1.216530e+00	1.209173e+00	1.203195e+00	1.277615e+00	1.268933e+00	9.312174e-01	1.114784e+00	9.369266e-01	1.323052e+00	1.332929e+00	1.320461e+00	1.008989e+00	1.048514e+00	1.024475e+00	1.053107e+00	1.062998e+00	1.108326e+00	1.039477e+00	1.209512e+00	1.004981e+00	9.411435e-01	1.022654e+00	8.154168e-01	8.964400e-01	1.218759e+00	9.391453e-01	1.205472e+00	1.232595e+00	1.171349e+00	8.780507e-01	8.124818e-01	8.703311e-01	8.934796e-01	7.103522e-01	6.616307e-01	1.228656e+00	1.207794e+00	1.212799e+00	1.211403e+00	1.203956e+00	8.999619e-01	8.297162e-01	1.229483e+00	1.264462e+00	1.324924e+00	1.328477e+00	1.330797e+00	1.123019e+00	1.130710e+00	1.070299e+00	1.334149e+00	9.892469e-01	1.055075e+00	9.792641e-01	1.153924e+00	1.196760e+00	1.212370e+00	1.259262e+00	1.264121e+00	1.244074e+00	1.288734e+00	1.288090e+00	1.275209e+00	9.191587e-01	1.092259e+00	1.119619e+00	1.140695e+00	1.156973e+00	1.095434e+00	1.149943e+00	1.096653e+00	8.713879e-01	1.146963e+00	1.166514e+00	1.010852e+00	9.512557e-01	9.454337e-01	1.162802e+00	1.166270e+00	1.169360e+00	8.134603e-01	1.171559e+00	1.166373e+00	8.986780e-01	8.655207e-01	9.728818e-01	8.088477e-01	1.258565e+00	1.281820e+00	1.271452e+00	1.067120e+00	1.037152e+00	1.058813e+00	1.226663e+00	1.234471e+00	1.224988e+00	1.229340e+00	1.250191e+00	1.237121e+00	1.176503e+00	1.193627e+00	1.218440e+00	1.230901e+00	1.213875e+00	1.401356e+00	1.405962e+00	1.402100e+00	1.396340e+00	1.387805e+00	1.386580e+00	1.145902e+00	1.150453e+00	1.164818e+00	1.401230e+00	1.403691e+00	1.403750e+00	1.527814e+00	1.553025e+00	1.563258e+00	1.378738e+00	1.361471e+00	1.378817e+00	1.433225e+00	1.421634e+00	1.403768e+00	1.163651e+00	1.162889e+00	1.174247e+00	1.222496e+00	1.206986e+00	1.162195e+00	1.148911e+00	1.155270e+00	1.268819e+00	1.143641e+00	1.143036e+00	1.153411e+00	1.258844e+00	1.274960e+00	1.270395e+00	1.264995e+00	1.153311e+00	1.400582e+00	1.169525e+00	1.178807e+00	1.166954e+00	1.155756e+00	1.194822e+00	1.205383e+00	1.212126e+00	1.161498e+00	1.181470e+00	1.171178e+00	1.171797e+00	1.194837e+00	1.181243e+00	1.188628e+00	1.194993e+00	1.209200e+00	1.368956e+00	1.376967e+00	1.361047e+00	1.408972e+00	1.410753e+00	1.398412e+00	1.178938e+00	1.169036e+00	1.621563e+00	1.617468e+00	1.645013e+00	1.260716e+00	1.303037e+00	1.288795e+00	1.316556e+00	1.340164e+00	1.346227e+00	1.391831e+00	1.418122e+00	1.422485e+00	1.296326e+00	1.305120e+00	1.319245e+00	1.416973e+00	1.419924e+00	1.423410e+00	1.421141e+00	1.424609e+00	1.258861e+00	1.287123e+00	1.287206e+00	1.418927e+00	1.415057e+00	1.419192e+00	1.405738e+00	1.408250e+00	1.408480e+00	1.419026e+00	1.415783e+00	1.414598e+00	1.411063e+00	1.412295e+00	1.222221e+00	1.204138e+00	1.191125e+00	1.197669e+00	1.186759e+00	1.181708e+00	1.218424e+00	1.138399e+00	1.129524e+00	1.120034e+00	1.110889e+00	1.141596e+00	1.142524e+00	1.158935e+00	1.291639e+00	1.052075e+00	1.073311e+00	1.023178e+00	1.290584e+00	1.291662e+00	1.291451e+00	8.503621e-01	1.291975e+00	1.291906e+00	8.007490e-01	7.325443e-01	9.906091e-01	1.271318e+00	1.259412e+00	1.255748e+00	8.956322e-01	9.303662e-01	1.082546e+00	1.074394e+00	1.052409e+00	9.756400e-01	1.291898e+00	1.208505e+00	9.681440e-01	1.188364e+00	1.163407e+00	1.130194e+00	1.166394e+00	1.168196e+00	1.292020e+00	1.061864e+00	1.148963e+00	1.057263e+00	7.140264e-01	6.307116e-01	6.932748e-01	1.292102e+00	1.290494e+00	1.290013e+00	1.290905e+00	1.292191e+00	1.291935e+00	1.291708e+00	1.291977e+00	1.292127e+00	1.291555e+00	1.292431e+00	1.292232e+00	1.292173e+00	1.292209e+00	1.292179e+00	1.031979e+00	1.003263e+00	1.069256e+00	1.269734e+00	1.264231e+00	1.292235e+00	1.292208e+00	1.292242e+00	1.292271e+00	1.292261e+00	1.292263e+00	1.292223e+00	1.292251e+00	1.292296e+00	1.292308e+00	1.292315e+00	1.292326e+00	1.292391e+00	1.292401e+00	1.292445e+00	1.292362e+00	1.292334e+00	1.292398e+00	1.292436e+00	1.292381e+00	1.292364e+00	1.292385e+00	1.292286e+00	1.292506e+00	1.293188e+00	1.293159e+00	1.293535e+00	1.292449e+00	1.339677e+00	1.325015e+00	1.336591e+00	1.296549e+00	1.296072e+00	1.294906e+00	1.292493e+00	1.292538e+00	1.300800e+00	1.304621e+00	1.306227e+00	1.292962e+00	1.292918e+00	1.292635e+00	1.292666e+00	1.292606e+00	1.517460e+00	1.515783e+00	1.540060e+00	1.490284e+00	1.501445e+00	1.445480e+00	1.439782e+00	1.451688e+00	1.445563e+00	1.465478e+00	1.465942e+00	1.415484e+00	1.404267e+00	1.370106e+00	1.292773e+00	1.292716e+00	1.292751e+00	1.425137e+00	1.406689e+00	1.427125e+00	1.320035e+00	1.278468e+00	1.316386e+00	1.288600e+00	1.316654e+00	1.319143e+00	1.373032e+00	1.393326e+00	1.322365e+00	1.321417e+00	1.279739e+00	1.292679e+00	1.292681e+00	1.292626e+00	1.335896e+00	1.265043e+00	1.295288e+00	1.281080e+00	1.348911e+00	1.283547e+00	1.278558e+00	1.289244e+00	1.248536e+00	1.228413e+00	1.211308e+00	1.214001e+00	1.208946e+00	1.192581e+00	1.197485e+00	1.198771e+00	1.188640e+00	1.177782e+00	1.188091e+00	1.292820e+00	1.292930e+00	1.292844e+00	1.172380e+00	1.176591e+00	1.187332e+00	1.228501e+00	1.245151e+00	1.234629e+00	1.276066e+00	1.254184e+00	1.213499e+00	1.210122e+00	1.192734e+00	1.224587e+00	1.292658e+00	1.292700e+00	1.153711e+00	1.165828e+00	1.118375e+00	1.292283e+00	1.274217e+00	1.279163e+00	1.288740e+00	8.713168e-01	9.429900e-01	8.797788e-01	1.292074e+00	1.292042e+00	1.292741e+00	1.292763e+00	1.293265e+00	1.393578e+00	1.396563e+00	1.397152e+00	1.293152e+00	1.293296e+00	1.294008e+00	1.292612e+00	1.292615e+00	1.292511e+00	1.291948e+00	1.291997e+00	1.292027e+00	1.293175e+00	1.292591e+00	1.292541e+00	1.291949e+00	1.291903e+00	1.291863e+00	1.291847e+00	1.291988e+00	1.291862e+00	1.291941e+00	1.292058e+00	1.291956e+00	1.292396e+00	1.292003e+00	1.292041e+00	1.292167e+00	1.292800e+00	1.292096e+00	1.292213e+00	8.857532e-01	9.264762e-01	1.292191e+00	1.292190e+00	1.295120e+00	1.294995e+00	1.294000e+00	1.292209e+00	1.292086e+00	1.291901e+00	1.289383e+00	1.292677e+00	1.292546e+00	1.292571e+00	1.292717e+00	1.292569e+00	1.292658e+00	1.292301e+00	1.292311e+00	1.292330e+00	1.292256e+00	1.292167e+00	1.291872e+00	1.291850e+00	1.292727e+00	1.292110e+00	1.292075e+00	1.292028e+00	1.291902e+00	1.291861e+00	1.291938e+00	1.291980e+00	1.292022e+00	1.291954e+00	1.291910e+00	1.292317e+00	1.292376e+00	1.292513e+00	1.292615e+00	1.292697e+00	1.292490e+00	1.292401e+00	1.292429e+00	1.292114e+00	1.292057e+00	1.292126e+00	1.291833e+00	1.291810e+00	1.292411e+00	1.292217e+00	1.292716e+00	1.292929e+00	1.132936e+00	1.063978e+00	1.080590e+00	1.290006e+00	1.302488e+00	1.287862e+00	1.294430e+00	1.293880e+00	1.292804e+00	1.291955e+00	1.292396e+00	1.292860e+00	1.292810e+00	1.291732e+00	1.291817e+00	1.291664e+00	1.292122e+00	1.292118e+00	1.292033e+00	1.292312e+00	1.292283e+00	1.292307e+00	1.292347e+00	1.292365e+00	1.292606e+00	1.292696e+00	1.292401e+00	1.292824e+00	1.292119e+00	1.119823e+00	1.171019e+00	1.079608e+00	1.294971e+00	1.294093e+00	1.294608e+00	1.291922e+00	1.292595e+00	1.293311e+00	1.292812e+00	1.291827e+00	1.292266e+00	1.292346e+00	1.292285e+00	1.292322e+00	1.292140e+00	1.292064e+00	1.292744e+00	1.292785e+00	1.292726e+00	1.291725e+00	1.292582e+00	1.292663e+00	1.291851e+00	1.291991e+00	1.291955e+00	1.292086e+00	1.292133e+00	1.292415e+00	1.292748e+00	1.291725e+00	1.292521e+00	1.292475e+00	1.291732e+00	1.292762e+00	1.291352e+00	1.291987e+00	1.291966e+00	1.292017e+00	1.293078e+00	1.292446e+00	1.292581e+00	1.292496e+00	1.291335e+00	1.290873e+00	1.291601e+00	1.292910e+00	1.293626e+00	1.291453e+00	1.291468e+00	1.292489e+00	1.292447e+00	1.291881e+00	1.291827e+00	1.292004e+00	1.292084e+00	1.292483e+00	1.033929e+00	9.920765e-01	1.292372e+00	1.291433e+00	1.292988e+00	1.291514e+00	1.292027e+00	1.292774e+00	1.291919e+00	1.292585e+00	1.291977e+00	1.291954e+00	1.291913e+00	1.291859e+00	1.292403e+00	1.292510e+00	1.292467e+00	1.292449e+00	1.293703e+00	1.292672e+00	1.292893e+00	1.293271e+00	1.292001e+00	1.291829e+00	1.292729e+00	1.291277e+00	1.294272e+00	1.290476e+00	7.487697e-01	8.026062e-01	1.289849e+00	1.288832e+00	1.288853e+00	1.428467e+00	1.401321e+00	1.392323e+00	1.294024e+00	1.290951e+00	1.296543e+00	1.296837e+00	1.297822e+00	1.291418e+00	1.290853e+00	1.290165e+00	1.290314e+00	1.291710e+00	1.290623e+00	1.295947e+00	1.296637e+00	1.237644e+00	1.231471e+00	1.293202e+00	1.292573e+00	1.156392e+00	1.256055e+00	1.204381e+00	1.286321e+00	1.282685e+00	1.293357e+00	1.294178e+00	1.287793e+00	1.289625e+00	1.295252e+00	1.295281e+00	1.398169e+00	1.399074e+00	1.394031e+00	1.292529e+00	1.287289e+00	1.298234e+00	1.293692e+00	1.292554e+00	1.292863e+00	1.295942e+00	1.289279e+00	1.177077e+00	1.155326e+00	1.281868e+00	1.284849e+00	1.298304e+00	1.296175e+00	1.293861e+00	1.294654e+00	1.290735e+00	1.292204e+00	1.291080e+00	1.298365e+00	1.534070e+00	1.489609e+00	1.491570e+00	1.290920e+00	1.289035e+00	1.297845e+00	1.295416e+00	1.285795e+00	1.299152e+00	1.300259e+00	1.299264e+00	1.301115e+00	1.298952e+00	1.300777e+00	1.452160e+00	1.275702e+00	1.327029e+00	1.334640e+00	1.331390e+00	1.293259e+00	1.305818e+00	1.300313e+00	1.301762e+00	1.297003e+00	1.300016e+00	1.296325e+00	1.297111e+00	1.298915e+00	8.597799e-01	9.262808e-01	1.282887e+00	1.280275e+00	1.285594e+00	1.298077e+00	1.302893e+00	1.300520e+00	1.345421e+00	1.398281e+00	1.342741e+00	1.292779e+00	1.302573e+00	1.296536e+00	1.294799e+00	1.293860e+00	1.289446e+00	1.292348e+00	1.093998e+00	1.284105e+00	1.289795e+00	1.393612e+00	1.387866e+00	1.301269e+00	1.288281e+00	1.289814e+00	1.278644e+00	6.079610e-01	1.293932e+00	1.288357e+00	1.287261e+00	1.298945e+00	1.299404e+00	1.294348e+00	1.299589e+00	1.305913e+00	1.310569e+00	1.301481e+00	1.310427e+00	1.313540e+00	1.290649e+00	1.304302e+00	1.304163e+00	1.275082e+00	1.247180e+00	1.302621e+00	1.279448e+00	1.294788e+00	1.289328e+00	1.297801e+00	1.295525e+00	1.307070e+00	1.309931e+00	1.301768e+00	1.317827e+00	1.316994e+00	1.330649e+00	1.298147e+00	1.310674e+00	1.214946e+00	1.217592e+00	1.214212e+00	1.179266e+00	1.243610e+00	1.289507e+00	1.310881e+00	1.285347e+00	1.312103e+00	1.223573e+00	1.258047e+00	1.212342e+00	1.234589e+00	1.294381e+00	1.335267e+00	1.344263e+00	1.358938e+00	1.387947e+00	1.359684e+00	9.254595e-01	8.336332e-01	8.917409e-01	1.207009e+00	1.298691e+00	1.308129e+00	1.314471e+00	1.313742e+00	1.229855e+00	1.214016e+00	1.229821e+00	1.289863e+00	1.316422e+00	1.323151e+00	1.224291e+00	1.235627e+00	1.451088e+00	1.391275e+00	1.417663e+00	1.313050e+00	1.319198e+00	1.308039e+00	1.321686e+00	1.176916e+00	1.300976e+00	1.355243e+00	1.334750e+00	1.169488e+00	9.683627e-01	1.306812e+00	1.290035e+00	1.231257e+00	1.314517e+00	1.318423e+00	1.314968e+00	1.316325e+00	1.321443e+00	1.258318e+00	1.334639e+00	1.320226e+00	1.149820e+00	1.241855e+00	1.197905e+00	1.277063e+00	1.305794e+00	1.311014e+00	1.284167e+00	1.297337e+00	1.347939e+00	1.344454e+00	1.363893e+00	1.273675e+00	1.230231e+00	1.143384e+00	1.313488e+00	1.231870e+00	1.338308e+00	1.367352e+00	1.343853e+00	1.181962e+00	1.127293e+00	1.337415e+00	1.171710e+00	1.117905e+00	1.375794e+00	1.371473e+00	1.377460e+00	1.329718e+00	1.333416e+00	1.179341e+00	1.232726e+00	1.210980e+00	1.340928e+00	1.319371e+00	1.291292e+00	1.313684e+00	1.287430e+00	1.265080e+00	1.153176e+00	1.171956e+00	6.556736e-01	6.278234e-01	1.036659e+00	1.105476e+00	1.120683e+00	1.132495e+00	1.083154e+00	1.324354e+00	1.537430e+00	1.506250e+00	1.195817e+00	1.232163e+00	1.270191e+00	1.470825e+00	1.480625e+00	1.316831e+00	1.348937e+00	1.103189e+00	1.143098e+00	1.301689e+00	1.338361e+00	1.293971e+00	1.294145e+00	1.266673e+00	1.284018e+00	1.362362e+00	1.196740e+00	1.278910e+00	1.315202e+00	9.587974e-01	1.233578e+00	1.212437e+00	1.260248e+00	1.255217e+00	1.242122e+00	9.370915e-01	9.108790e-01	8.836551e-01	1.268439e+00	1.169553e+00	1.344404e+00	1.283425e+00	1.138321e+00	1.285349e+00	1.376081e+00	1.341335e+00	1.474238e+00	1.465888e+00	1.442910e+00	1.006727e+00	1.078056e+00	1.115957e+00	1.293198e+00	1.311208e+00	1.313722e+00	1.289290e+00	1.314337e+00	1.254022e+00	1.054335e+00	1.209791e+00	1.310830e+00	1.305852e+00	1.166156e+00	1.171081e+00	1.214201e+00	1.241230e+00	9.867044e-01	1.293815e+00	1.291214e+00	1.386031e+00	1.390251e+00	1.391719e+00	1.126277e+00	8.917391e-01	9.165519e-01	8.649511e-01	1.381166e+00	1.563274e+00	1.569004e+00	9.379654e-01	9.372791e-01	6.759204e-01	7.352229e-01	1.102372e+00	1.095035e+00	1.244767e+00	1.245314e+00	1.280985e+00	1.261245e+00	1.360018e+00	1.271059e+00	1.178958e+00	1.184578e+00	9.687158e-01	1.019938e+00	1.333970e+00	1.382729e+00	1.414694e+00	1.199253e+00	1.357209e+00	1.360482e+00	1.378978e+00	1.100115e+00	1.281831e+00	1.285438e+00	1.312468e+00	1.345623e+00	1.359817e+00	1.293351e+00	1.300226e+00	1.297501e+00	1.295733e+00	1.295155e+00	1.218800e+00	1.212602e+00	1.185412e+00	1.173905e+00	1.131429e+00	1.080596e+00	1.147798e+00	1.100500e+00	1.275848e+00	1.278087e+00	1.238374e+00	1.244303e+00	1.241532e+00	1.254718e+00	1.259001e+00	1.254633e+00	1.239157e+00	1.233585e+00	1.151118e+00	1.141446e+00	8.333869e-01	9.822411e-01	1.291091e+00	1.131732e+00	1.231397e+00	1.278776e+00	1.168708e+00	1.242265e+00	1.262868e+00	1.224824e+00	1.208340e+00	1.468086e+00	1.445701e+00	1.374701e+00	1.356662e+00	1.353000e+00	1.356032e+00	1.386956e+00	1.345925e+00	1.121371e+00	1.153470e+00	1.215302e+00	1.167610e+00	1.119949e+00	1.245228e+00	1.313420e+00	1.306460e+00	1.304774e+00	1.525729e+00	1.500598e+00	1.497356e+00	1.537576e+00	1.511537e+00	1.422392e+00	1.400577e+00	1.174196e+00	1.155750e+00	1.164575e+00	1.188618e+00	1.013360e+00	1.145423e+00	1.164095e+00	1.181855e+00	7.073926e-01	1.149735e+00	1.182760e+00	1.043022e+00	1.089465e+00	1.064836e+00	7.910433e-01	1.240499e+00	1.217857e+00	1.217403e+00	1.415465e+00	1.386005e+00	1.379688e+00	1.191982e+00	1.231799e+00	1.133402e+00	1.169356e+00	1.177032e+00	1.201586e+00	1.214117e+00	1.194208e+00	1.185442e+00	1.172224e+00	1.179288e+00	8.020350e-01	7.598015e-01	1.310161e+00	1.306535e+00	1.365207e+00	1.370323e+00	1.404141e+00	1.015547e+00	1.424302e+00	1.427522e+00	1.427269e+00	1.411439e+00	1.407855e+00	1.396133e+00	1.348913e+00	1.372232e+00	1.360133e+00	1.359113e+00	1.239108e+00	1.247072e+00	1.057832e+00	1.093462e+00	9.684035e-01	1.234628e+00	1.218469e+00	1.223252e+00	1.273907e+00	1.283261e+00	1.249936e+00	1.242774e+00	1.247042e+00	1.185423e+00	1.029641e+00	1.092187e+00	1.084383e+00	1.059891e+00	1.133076e+00	1.111907e+00	1.123145e+00	1.172925e+00	1.126495e+00	1.194699e+00	1.174243e+00	1.354087e+00	1.317603e+00	1.328842e+00	1.251405e+00	1.177438e+00	1.332724e+00	1.304919e+00	1.535419e+00	1.506774e+00	1.442596e+00	1.199735e+00	1.395941e+00	1.426363e+00	1.198893e+00	1.038489e+00	1.112046e+00	1.174675e+00	1.248722e+00	1.458085e+00	1.212532e+00	7.520957e-01	1.151201e+00	1.207688e+00	1.369364e+00	1.372069e+00	1.485588e+00	1.499236e+00	1.440037e+00	1.143459e+00	1.120815e+00	1.128058e+00	1.283144e+00	1.289304e+00	1.286309e+00	1.346176e+00	1.354206e+00	1.297403e+00	1.305593e+00	1.103578e+00	1.306368e+00	1.167953e+00	1.197037e+00	1.248213e+00	1.237427e+00	1.173235e+00	1.046921e+00	1.045694e+00	1.007053e+00	1.058092e+00	1.008465e+00	1.028498e+00	9.173452e-01	8.401531e-01	8.844869e-01	1.211430e+00	1.527827e+00	1.543052e+00	1.541430e+00	1.442673e+00	1.342769e+00	1.293109e+00	1.178235e+00	1.196611e+00	1.218214e+00	1.395030e+00	1.378237e+00	8.445097e-01	7.568570e-01	1.228438e+00	1.215177e+00	1.202516e+00	1.200520e+00	8.070523e-01	1.022508e+00	1.011063e+00	1.220464e+00	1.229065e+00	1.245046e+00	1.220822