# vtk DataFile Version 3.0
vtk output
ASCII
DATASET UNSTRUCTURED_GRID
POINTS 198 double
0.000000e+00	0.000000e+00	0.0	3.083746e-03	3.935798e-03	0.0	6.282312e-03	8.018142e-03	0.0	1.064561e-02	1.115988e-02	0.0	1.517833e-02	1.440027e-02	0.0	2.038741e-02	1.689099e-02	0.0	2.578940e-02	1.945219e-02	0.0	3.161732e-02	2.153659e-02	0.0	3.766346e-02	2.364165e-02	0.0	4.405783e-02	2.536670e-02	0.0	5.070358e-02	2.698844e-02	0.0	5.766897e-02	2.821885e-02	0.0	6.491034e-02	2.910171e-02	0.0	7.242799e-02	2.966311e-02	0.0	8.020084e-02	2.962085e-02	0.0	8.821539e-02	2.944188e-02	0.0	9.646943e-02	2.912139e-02	0.0	1.049726e-01	2.897917e-02	0.0	1.137259e-01	2.897579e-02	0.0	1.227148e-01	2.937660e-02	0.0	1.319465e-01	2.999276e-02	0.0	1.414035e-01	3.088425e-02	0.0	1.510827e-01	3.208470e-02	0.0	1.610066e-01	3.334029e-02	0.0	1.711161e-01	3.504630e-02	0.0	1.814697e-01	3.679348e-02	0.0	1.920279e-01	3.877882e-02	0.0	2.027865e-01	4.101018e-02	0.0	2.137789e-01	4.329006e-02	0.0	2.249761e-01	4.573459e-02	0.0	2.363946e-01	4.824369e-02	0.0	2.480587e-01	5.066686e-02	0.0	2.600092e-01	5.276572e-02	0.0	2.721678e-01	5.490113e-02	0.0	2.846307e-01	5.625401e-02	0.0	2.973353e-01	5.725220e-02	0.0	3.102295e-01	5.802115e-02	0.0	3.233214e-01	5.738951e-02	0.0	3.365798e-01	5.674984e-02	0.0	3.499510e-01	5.556792e-02	0.0	3.634401e-01	5.405171e-02	0.0	3.770638e-01	5.254904e-02	0.0	3.908326e-01	5.128699e-02	0.0	4.047080e-01	5.001518e-02	0.0	4.187110e-01	4.954182e-02	0.0	4.328179e-01	4.962736e-02	0.0	4.469833e-01	4.984560e-02	0.0	4.611324e-01	5.130743e-02	0.0	4.753182e-01	5.277304e-02	0.0	4.895011e-01	5.445586e-02	0.0	5.036742e-01	5.628737e-02	0.0	5.178456e-01	5.806384e-02	0.0	5.320593e-01	5.922788e-02	0.0	5.462363e-01	6.038890e-02	0.0	5.603883e-01	6.075113e-02	0.0	5.744938e-01	6.053684e-02	0.0	5.885149e-01	6.023983e-02	0.0	6.023912e-01	5.897793e-02	0.0	6.161609e-01	5.772572e-02	0.0	6.297767e-01	5.617593e-02	0.0	6.432342e-01	5.440019e-02	0.0	6.565482e-01	5.264176e-02	0.0	6.696954e-01	5.081281e-02	0.0	6.826776e-01	4.900682e-02	0.0	6.954884e-01	4.725386e-02	0.0	7.081191e-01	4.555975e-02	0.0	7.205560e-01	4.389162e-02	0.0	7.327959e-01	4.228647e-02	0.0	7.448268e-01	4.071230e-02	0.0	7.566421e-01	3.917213e-02	0.0	7.682359e-01	3.766911e-02	0.0	7.796019e-01	3.619559e-02	0.0	7.907331e-01	3.473750e-02	0.0	8.016276e-01	3.331044e-02	0.0	8.122772e-01	3.188130e-02	0.0	8.226821e-01	3.047133e-02	0.0	8.328366e-01	2.905737e-02	0.0	8.427386e-01	2.763680e-02	0.0	8.523902e-01	2.623167e-02	0.0	8.617824e-01	2.478628e-02	0.0	8.709270e-01	2.337900e-02	0.0	8.798139e-01	2.194264e-02	0.0	8.884529e-01	2.053231e-02	0.0	8.968440e-01	1.914029e-02	0.0	9.049863e-01	1.774917e-02	0.0	9.128887e-01	1.639903e-02	0.0	9.205471e-01	1.505049e-02	0.0	9.279702e-01	1.373563e-02	0.0	9.351599e-01	1.244781e-02	0.0	9.421180e-01	1.117711e-02	0.0	9.488526e-01	9.946591e-03	0.0	9.553620e-01	8.725435e-03	0.0	9.616563e-01	7.544648e-03	0.0	9.677356e-01	6.382113e-03	0.0	9.736078e-01	5.255351e-03	0.0	9.792749e-01	4.149826e-03	0.0	9.847437e-01	3.076085e-03	0.0	9.900178e-01	2.028022e-03	0.0	9.951014e-01	1.001979e-03	0.0	1.000000e+00	0.000000e+00	0.0	9.950058e-01	2.388189e-04	0.0	9.898222e-01	4.389114e-04	0.0	9.844442e-01	5.860324e-04	0.0	9.788677e-01	6.872748e-04	0.0	9.730884e-01	7.634378e-04	0.0	9.671013e-01	7.803963e-04	0.0	9.609025e-01	7.743623e-04	0.0	9.544873e-01	7.023146e-04	0.0	9.478514e-01	6.141615e-04	0.0	9.409921e-01	4.302893e-04	0.0	9.339033e-01	2.402695e-04	0.0	9.265851e-01	-6.122759e-05	0.0	9.190310e-01	-3.969146e-04	0.0	9.112431e-01	-8.450173e-04	0.0	9.032231e-01	-1.481211e-03	0.0	8.949576e-01	-2.136869e-03	0.0	8.864960e-01	-3.277826e-03	0.0	8.777935e-01	-4.518099e-03	0.0	8.689020e-01	-6.115746e-03	0.0	8.598530e-01	-8.243432e-03	0.0	8.505570e-01	-1.042922e-02	0.0	8.412421e-01	-1.348413e-02	0.0	8.316897e-01	-1.662980e-02	0.0	8.219179e-01	-1.991581e-02	0.0	8.119206e-01	-2.331870e-02	0.0	8.016236e-01	-2.658923e-02	0.0	7.909366e-01	-2.941901e-02	0.0	7.800152e-01	-3.231085e-02	0.0	7.685966e-01	-3.392817e-02	0.0	7.569353e-01	-3.552050e-02	0.0	7.449988e-01	-3.664748e-02	0.0	7.328040e-01	-3.741602e-02	0.0	7.203961e-01	-3.821470e-02	0.0	7.077919e-01	-3.917467e-02	0.0	6.949896e-01	-4.014973e-02	0.0	6.820743e-01	-4.178039e-02	0.0	6.690349e-01	-4.388969e-02	0.0	6.558376e-01	-4.607102e-02	0.0	6.427285e-01	-4.944782e-02	0.0	6.294772e-01	-5.286126e-02	0.0	6.161162e-01	-5.638742e-02	0.0	6.026626e-01	-6.004043e-02	0.0	5.891038e-01	-6.372198e-02	0.0	5.752596e-01	-6.660660e-02	0.0	5.613083e-01	-6.939039e-02	0.0	5.472045e-01	-7.152215e-02	0.0	5.328866e-01	-7.241589e-02	0.0	5.185311e-01	-7.331197e-02	0.0	5.041382e-01	-7.293872e-02	0.0	4.897356e-01	-7.237824e-02	0.0	4.753509e-01	-7.162976e-02	0.0	4.610043e-01	-7.060107e-02	0.0	4.466953e-01	-6.957507e-02	0.0	4.324140e-01	-6.899922e-02	0.0	4.181978e-01	-6.846223e-02	0.0	4.040592e-01	-6.827403e-02	0.0	3.900114e-01	-6.850715e-02	0.0	3.760725e-01	-6.873846e-02	0.0	3.622654e-01	-6.930134e-02	0.0	3.485932e-01	-6.986835e-02	0.0	3.350658e-01	-7.037455e-02	0.0	3.216947e-01	-7.081667e-02	0.0	3.084930e-01	-7.125318e-02	0.0	2.954642e-01	-7.122567e-02	0.0	2.826248e-01	-7.119191e-02	0.0	2.699888e-01	-7.093617e-02	0.0	2.575648e-01	-7.044495e-02	0.0	2.453554e-01	-6.996221e-02	0.0	2.333883e-01	-6.911356e-02	0.0	2.216494e-01	-6.826608e-02	0.0	2.101556e-01	-6.729336e-02	0.0	1.989154e-01	-6.615507e-02	0.0	1.879163e-01	-6.504122e-02	0.0	1.772005e-01	-6.362707e-02	0.0	1.667360e-01	-6.220618e-02	0.0	1.565462e-01	-6.065601e-02	0.0	1.466549e-01	-5.883759e-02	0.0	1.370129e-01	-5.706501e-02	0.0	1.277207e-01	-5.487661e-02	0.0	1.187012e-01	-5.262725e-02	0.0	1.099667e-01	-5.030148e-02	0.0	1.016023e-01	-4.759800e-02	0.0	9.347625e-02	-4.497157e-02	0.0	8.567454e-02	-4.217027e-02	0.0	7.814492e-02	-3.933630e-02	0.0	7.085276e-02	-3.656314e-02	0.0	6.382679e-02	-3.376802e-02	0.0	5.702100e-02	-3.106049e-02	0.0	5.039890e-02	-2.852428e-02	0.0	4.398479e-02	-2.608617e-02	0.0	3.776812e-02	-2.376318e-02	0.0	3.175403e-02	-2.152937e-02	0.0	2.602249e-02	-1.916889e-02	0.0	2.055586e-02	-1.674084e-02	0.0	1.547330e-02	-1.398865e-02	0.0	1.081218e-02	-1.094543e-02	0.0	6.502100e-03	-7.733779e-03	0.0	2.766945e-03	-4.133935e-03	0.0	
CELLS 198	594
2	4	5	2	5	6	2	6	7	2	7	8	2	8	9	2	9	10	2	10	11	2	11	12	2	12	13	2	13	14	2	14	15	2	15	16	2	16	17	2	17	18	2	18	19	2	19	20	2	20	21	2	21	22	2	22	23	2	23	24	2	24	25	2	25	26	2	26	27	2	27	28	2	28	29	2	29	30	2	30	31	2	31	32	2	32	33	2	33	34	2	34	35	2	35	36	2	36	37	2	37	38	2	38	39	2	39	40	2	40	41	2	41	42	2	42	43	2	43	44	2	44	45	2	45	46	2	46	47	2	47	48	2	48	49	2	49	50	2	50	51	2	51	52	2	52	53	2	53	54	2	54	55	2	55	56	2	56	57	2	57	58	2	58	59	2	59	60	2	60	61	2	61	62	2	62	63	2	63	64	2	64	65	2	65	66	2	66	67	2	67	68	2	68	69	2	69	70	2	70	71	2	71	72	2	72	73	2	73	74	2	74	75	2	75	76	2	76	77	2	0	1	2	1	2	2	2	3	2	3	4	2	140	141	2	141	142	2	142	143	2	143	144	2	144	145	2	145	146	2	146	147	2	147	148	2	148	149	2	149	150	2	150	151	2	151	152	2	152	153	2	153	154	2	154	155	2	155	156	2	156	157	2	157	158	2	158	159	2	159	160	2	160	161	2	161	162	2	162	163	2	163	164	2	164	165	2	165	166	2	166	167	2	167	168	2	168	169	2	169	170	2	170	171	2	171	172	2	172	173	2	173	174	2	174	175	2	175	176	2	176	177	2	177	178	2	178	179	2	179	180	2	180	181	2	181	182	2	182	183	2	183	184	2	184	185	2	185	186	2	186	187	2	187	188	2	188	189	2	189	190	2	190	191	2	191	192	2	192	193	2	193	194	2	194	195	2	195	196	2	196	197	2	197	0	2	77	78	2	78	79	2	79	80	2	80	81	2	81	82	2	82	83	2	83	84	2	84	85	2	85	86	2	86	87	2	87	88	2	88	89	2	89	90	2	90	91	2	91	92	2	92	93	2	93	94	2	94	95	2	95	96	2	96	97	2	97	98	2	98	99	2	99	100	2	100	101	2	101	102	2	102	103	2	103	104	2	104	105	2	105	106	2	106	107	2	107	108	2	108	109	2	109	110	2	110	111	2	111	112	2	112	113	2	113	114	2	114	115	2	115	116	2	116	117	2	117	118	2	118	119	2	119	120	2	120	121	2	121	122	2	122	123	2	123	124	2	124	125	2	125	126	2	126	127	2	127	128	2	128	129	2	129	130	2	130	131	2	131	132	2	132	133	2	133	134	2	134	135	2	135	136	2	136	137	2	137	138	2	138	139	2	139	140	
CELL_TYPES 198
3	3	3	3	3	3	3	3	3	3	3	3	3	3	3	3	3	3	3	3	3	3	3	3	3	3	3	3	3	3	3	3	3	3	3	3	3	3	3	3	3	3	3	3	3	3	3	3	3	3	3	3	3	3	3	3	3	3	3	3	3	3	3	3	3	3	3	3	3	3	3	3	3	3	3	3	3	3	3	3	3	3	3	3	3	3	3	3	3	3	3	3	3	3	3	3	3	3	3	3	3	3	3	3	3	3	3	3	3	3	3	3	3	3	3	3	3	3	3	3	3	3	3	3	3	3	3	3	3	3	3	3	3	3	3	3	3	3	3	3	3	3	3	3	3	3	3	3	3	3	3	3	3	3	3	3	3	3	3	3	3	3	3	3	3	3	3	3	3	3	3	3	3	3	3	3	3	3	3	3	3	3	3	3	3	3	3	3	3	3	3	3	3	3	3	3	3	3	
POINT_DATA 198

SCALARS Density double 1
LOOKUP_TABLE default
1.571036e+00	1.248682e+00	1.180151e+00	1.089367e+00	1.026384e+00	9.639927e-01	9.416367e-01	9.061056e-01	8.779266e-01	8.330155e-01	7.907378e-01	7.307824e-01	6.807182e-01	6.119199e-01	5.656960e-01	5.628587e-01	6.693942e-01	1.022517e+00	1.223991e+00	1.211415e+00	1.214885e+00	1.211792e+00	1.205802e+00	1.204980e+00	1.197607e+00	1.183799e+00	1.176533e+00	1.156336e+00	1.135105e+00	1.110077e+00	1.073246e+00	1.023270e+00	9.832678e-01	9.212372e-01	8.544878e-01	8.208224e-01	7.359759e-01	6.667750e-01	6.406357e-01	6.088734e-01	6.284754e-01	8.347666e-01	1.093231e+00	1.158446e+00	1.178030e+00	1.168467e+00	1.175212e+00	1.161841e+00	1.127897e+00	1.105426e+00	1.070855e+00	1.016328e+00	9.703962e-01	9.205953e-01	8.565102e-01	8.237671e-01	7.926365e-01	7.987188e-01	8.975149e-01	9.882293e-01	1.034098e+00	1.060228e+00	1.079304e+00	1.096474e+00	1.109593e+00	1.119494e+00	1.128140e+00	1.135816e+00	1.141600e+00	1.147201e+00	1.152401e+00	1.156856e+00	1.161386e+00	1.165294e+00	1.169412e+00	1.173481e+00	1.177342e+00	1.182048e+00	1.186290e+00	1.191459e+00	1.196996e+00	1.201772e+00	1.208073e+00	1.212557e+00	1.218066e+00	1.222972e+00	1.227769e+00	1.233047e+00	1.237296e+00	1.242320e+00	1.246930e+00	1.251501e+00	1.256424e+00	1.261089e+00	1.265890e+00	1.271235e+00	1.276237e+00	1.285089e+00	1.279934e+00	1.296227e+00	1.422573e+00	1.375748e+00	1.388309e+00	1.389752e+00	1.392382e+00	1.395317e+00	1.397251e+00	1.400606e+00	1.402535e+00	1.405636e+00	1.408842e+00	1.411862e+00	1.418527e+00	1.418418e+00	1.427689e+00	1.430308e+00	1.427721e+00	1.434033e+00	1.423921e+00	1.425453e+00	1.416429e+00	1.388201e+00	1.367070e+00	1.333525e+00	1.289715e+00	1.259848e+00	1.201471e+00	1.179218e+00	1.194696e+00	1.199623e+00	1.233186e+00	1.267850e+00	1.288052e+00	1.315234e+00	1.335109e+00	1.328398e+00	1.343701e+00	1.335524e+00	1.301755e+00	1.281232e+00	1.253404e+00	1.201324e+00	1.015958e+00	8.144142e-01	7.684332e-01	8.388119e-01	9.053007e-01	9.834695e-01	1.073597e+00	1.117605e+00	1.168281e+00	1.223070e+00	1.249446e+00	1.266203e+00	1.284739e+00	1.279038e+00	1.273782e+00	1.264465e+00	1.240195e+00	1.222489e+00	1.204062e+00	1.170805e+00	1.153640e+00	1.147041e+00	1.134944e+00	1.138524e+00	1.132827e+00	1.136986e+00	1.148969e+00	1.150813e+00	1.160630e+00	1.159490e+00	1.164991e+00	1.174868e+00	1.173261e+00	1.187537e+00	1.189947e+00	1.201088e+00	1.230209e+00	1.237711e+00	1.267488e+00	1.299031e+00	1.320497e+00	1.355003e+00	1.379205e+00	1.402345e+00	1.428906e+00	1.447695e+00	1.461656e+00	1.475702e+00	1.481318e+00	1.491559e+00	1.505025e+00	1.521076e+00	1.558009e+00	1.595840e+00	1.612184e+00	1.702539e+00	
VECTORS Momentum double
7.572069e+00	1.965949e+02	0.0	1.553665e+02	2.032180e+02	0.0	2.021102e+02	1.944531e+02	0.0	2.445586e+02	1.759809e+02	0.0	2.684970e+02	1.582772e+02	0.0	2.799827e+02	1.329577e+02	0.0	2.894009e+02	1.197378e+02	0.0	2.932490e+02	1.035387e+02	0.0	2.966850e+02	9.157473e+01	0.0	2.961100e+02	7.622031e+01	0.0	2.956481e+02	6.273898e+01	0.0	2.885679e+02	4.375816e+01	0.0	2.830086e+02	2.870879e+01	0.0	2.669284e+02	1.024532e+01	0.0	2.564180e+02	-2.792128e+00	0.0	2.466252e+02	-8.230938e+00	0.0	2.551787e+02	-9.117747e+00	0.0	2.578456e+02	-1.425907e+00	0.0	2.499444e+02	6.383135e+00	0.0	2.423968e+02	1.443398e+01	0.0	2.373797e+02	1.966282e+01	0.0	2.332537e+02	2.550244e+01	0.0	2.327969e+02	2.904041e+01	0.0	2.333535e+02	3.449971e+01	0.0	2.356547e+02	3.989101e+01	0.0	2.383603e+02	4.257693e+01	0.0	2.425233e+02	4.805019e+01	0.0	2.477208e+02	5.138859e+01	0.0	2.540087e+02	5.414576e+01	0.0	2.604776e+02	5.742715e+01	0.0	2.686859e+02	5.762474e+01	0.0	2.749958e+02	5.263708e+01	0.0	2.810958e+02	4.940432e+01	0.0	2.859218e+02	4.067241e+01	0.0	2.844403e+02	2.647689e+01	0.0	2.870179e+02	2.087877e+01	0.0	2.771648e+02	2.443334e+00	0.0	2.636691e+02	-1.283593e+01	0.0	2.621839e+02	-1.760170e+01	0.0	2.540558e+02	-2.586791e+01	0.0	2.501306e+02	-2.770941e+01	0.0	2.485316e+02	-2.688690e+01	0.0	2.425100e+02	-2.220905e+01	0.0	2.322077e+02	-1.390311e+01	0.0	2.302157e+02	-2.731001e+00	0.0	2.264460e+02	2.362737e+00	0.0	2.266082e+02	1.330550e+01	0.0	2.330986e+02	2.414950e+01	0.0	2.395637e+02	2.641477e+01	0.0	2.471384e+02	3.050792e+01	0.0	2.578769e+02	3.299983e+01	0.0	2.656477e+02	2.756386e+01	0.0	2.717084e+02	2.229453e+01	0.0	2.774816e+02	1.542526e+01	0.0	2.757441e+02	1.555465e+00	0.0	2.766081e+02	-5.153737e+00	0.0	2.750597e+02	-1.537501e+01	0.0	2.717599e+02	-2.561236e+01	0.0	2.705844e+02	-2.712562e+01	0.0	2.649576e+02	-3.171899e+01	0.0	2.601546e+02	-3.403518e+01	0.0	2.555039e+02	-3.444987e+01	0.0	2.510563e+02	-3.482992e+01	0.0	2.470932e+02	-3.411236e+01	0.0	2.439343e+02	-3.304409e+01	0.0	2.410251e+02	-3.230296e+01	0.0	2.383782e+02	-3.158937e+01	0.0	2.362669e+02	-3.090735e+01	0.0	2.339328e+02	-3.051934e+01	0.0	2.317609e+02	-3.012340e+01	0.0	2.297762e+02	-2.975871e+01	0.0	2.280241e+02	-2.970525e+01	0.0	2.264653e+02	-2.966625e+01	0.0	2.249755e+02	-2.984557e+01	0.0	2.233836e+02	-3.011519e+01	0.0	2.215289e+02	-3.042116e+01	0.0	2.195557e+02	-3.103980e+01	0.0	2.176240e+02	-3.145219e+01	0.0	2.155607e+02	-3.227040e+01	0.0	2.131375e+02	-3.281780e+01	0.0	2.109102e+02	-3.325315e+01	0.0	2.082632e+02	-3.385219e+01	0.0	2.059282e+02	-3.387107e+01	0.0	2.032378e+02	-3.420650e+01	0.0	2.005724e+02	-3.426533e+01	0.0	1.979546e+02	-3.431800e+01	0.0	1.950835e+02	-3.444468e+01	0.0	1.922871e+02	-3.422146e+01	0.0	1.892631e+02	-3.421452e+01	0.0	1.865073e+02	-3.406256e+01	0.0	1.836369e+02	-3.397266e+01	0.0	1.803775e+02	-3.382223e+01	0.0	1.771472e+02	-3.353356e+01	0.0	1.737618e+02	-3.327165e+01	0.0	1.699722e+02	-3.287619e+01	0.0	1.660485e+02	-3.248376e+01	0.0	1.612643e+02	-3.188619e+01	0.0	1.558127e+02	-3.118761e+01	0.0	1.452211e+02	-3.116246e+01	0.0	1.740799e+02	-1.522955e+00	0.0	2.652197e+02	-1.515883e+01	0.0	2.422572e+02	-7.351278e+00	0.0	2.437560e+02	-5.533940e+00	0.0	2.423781e+02	-3.830847e+00	0.0	2.409203e+02	-1.931322e+00	0.0	2.398937e+02	-2.737325e-01	0.0	2.384652e+02	1.462371e+00	0.0	2.370102e+02	2.875839e+00	0.0	2.353827e+02	4.730967e+00	0.0	2.341393e+02	6.257500e+00	0.0	2.322547e+02	7.934052e+00	0.0	2.304525e+02	9.846717e+00	0.0	2.280823e+02	1.159513e+01	0.0	2.254569e+02	1.559796e+01	0.0	2.232233e+02	1.759191e+01	0.0	2.192142e+02	2.356262e+01	0.0	2.180726e+02	3.034594e+01	0.0	2.173141e+02	3.509456e+01	0.0	2.163848e+02	4.522849e+01	0.0	2.192200e+02	5.135805e+01	0.0	2.201587e+02	6.181536e+01	0.0	2.268677e+02	7.446456e+01	0.0	2.390035e+02	7.932144e+01	0.0	2.491909e+02	8.423205e+01	0.0	2.621166e+02	8.635500e+01	0.0	2.762368e+02	8.008983e+01	0.0	2.854263e+02	7.589658e+01	0.0	2.987864e+02	5.963780e+01	0.0	3.021910e+02	4.199531e+01	0.0	2.978774e+02	3.474258e+01	0.0	2.962259e+02	2.320888e+01	0.0	2.876971e+02	1.846372e+01	0.0	2.789347e+02	1.964286e+01	0.0	2.726940e+02	2.062077e+01	0.0	2.651795e+02	2.710926e+01	0.0	2.601092e+02	3.796508e+01	0.0	2.600533e+02	4.221169e+01	0.0	2.567195e+02	5.413676e+01	0.0	2.610353e+02	6.719695e+01	0.0	2.717417e+02	7.045893e+01	0.0	2.771906e+02	7.404983e+01	0.0	2.827658e+02	7.656628e+01	0.0	2.932832e+02	7.093532e+01	0.0	2.957624e+02	6.197800e+01	0.0	2.979321e+02	5.136229e+01	0.0	3.181538e+02	3.305129e+01	0.0	3.236786e+02	1.995374e+01	0.0	3.310898e+02	4.184861e+00	0.0	3.361521e+02	-1.211775e+01	0.0	3.310347e+02	-1.503170e+01	0.0	3.286841e+02	-2.060478e+01	0.0	3.246953e+02	-2.351800e+01	0.0	3.184241e+02	-1.753897e+01	0.0	3.156547e+02	-1.249579e+01	0.0	3.143585e+02	-8.258100e+00	0.0	3.126309e+02	5.993897e-01	0.0	3.145585e+02	5.163832e+00	0.0	3.164292e+02	9.012828e+00	0.0	3.185442e+02	1.323820e+01	0.0	3.225136e+02	1.273041e+01	0.0	3.250000e+02	1.144031e+01	0.0	3.270827e+02	1.097169e+01	0.0	3.307884e+02	5.203272e+00	0.0	3.315442e+02	-6.138972e-01	0.0	3.309607e+02	-3.637214e+00	0.0	3.323070e+02	-9.880460e+00	0.0	3.309467e+02	-1.295363e+01	0.0	3.312715e+02	-1.841577e+01	0.0	3.307865e+02	-2.369577e+01	0.0	3.292456e+02	-2.571178e+01	0.0	3.294861e+02	-3.058638e+01	0.0	3.279964e+02	-3.307519e+01	0.0	3.276902e+02	-3.825539e+01	0.0	3.265167e+02	-4.372113e+01	0.0	3.241878e+02	-4.641036e+01	0.0	3.237653e+02	-5.447273e+01	0.0	3.208247e+02	-5.892739e+01	0.0	3.185310e+02	-6.667002e+01	0.0	3.145654e+02	-7.633641e+01	0.0	3.085118e+02	-7.921150e+01	0.0	3.040393e+02	-8.952131e+01	0.0	2.950257e+02	-9.530883e+01	0.0	2.860070e+02	-9.724126e+01	0.0	2.772745e+02	-1.019447e+02	0.0	2.672243e+02	-1.010879e+02	0.0	2.584757e+02	-1.004661e+02	0.0	2.491046e+02	-9.913046e+01	0.0	2.409078e+02	-9.405975e+01	0.0	2.344442e+02	-8.941764e+01	0.0	2.284047e+02	-8.611361e+01	0.0	2.228774e+02	-8.287040e+01	0.0	2.162523e+02	-8.445879e+01	0.0	2.048615e+02	-8.750489e+01	0.0	1.863511e+02	-9.111012e+01	0.0	1.571718e+02	-9.336814e+01	0.0	1.152307e+02	-8.071047e+01	0.0	6.939045e+01	-5.558946e+01	0.0	-1.405413e+01	1.165947e+01	0.0	
SCALARS Energy double 1
LOOKUP_TABLE default
3.442155e+05	2.782762e+05	2.654500e+05	2.481451e+05	2.361030e+05	2.232886e+05	2.190853e+05	2.117468e+05	2.060752e+05	1.966813e+05	1.879823e+05	1.751305e+05	1.646026e+05	1.493598e+05	1.392832e+05	1.375166e+05	1.590796e+05	2.310326e+05	2.727316e+05	2.696615e+05	2.701321e+05	2.692806e+05	2.680116e+05	2.679097e+05	2.665277e+05	2.637944e+05	2.625657e+05	2.586712e+05	2.546485e+05	2.498879e+05	2.427960e+05	2.328513e+05	2.250665e+05	2.127138e+05	1.989482e+05	1.924173e+05	1.745166e+05	1.595275e+05	1.543263e+05	1.473414e+05	1.506876e+05	1.917223e+05	2.448282e+05	2.578944e+05	2.618963e+05	2.596643e+05	2.611208e+05	2.587101e+05	2.519537e+05	2.477367e+05	2.412430e+05	2.304274e+05	2.213821e+05	2.116259e+05	1.984255e+05	1.919159e+05	1.855700e+05	1.865372e+05	2.064065e+05	2.246018e+05	2.337650e+05	2.388778e+05	2.425616e+05	2.458883e+05	2.484286e+05	2.503205e+05	2.519711e+05	2.534548e+05	2.545327e+05	2.555844e+05	2.565651e+05	2.574061e+05	2.582756e+05	2.590205e+05	2.598061e+05	2.605686e+05	2.612851e+05	2.621829e+05	2.629806e+05	2.639563e+05	2.650220e+05	2.659090e+05	2.671336e+05	2.679601e+05	2.690064e+05	2.699293e+05	2.708208e+05	2.718186e+05	2.725916e+05	2.735437e+05	2.744057e+05	2.752457e+05	2.761648e+05	2.770261e+05	2.779039e+05	2.788979e+05	2.797903e+05	2.814922e+05	2.800295e+05	2.844406e+05	3.155868e+05	3.044452e+05	3.071866e+05	3.074227e+05	3.079082e+05	3.084813e+05	3.088228e+05	3.094666e+05	3.098001e+05	3.104026e+05	3.109985e+05	3.115607e+05	3.128750e+05	3.127428e+05	3.146263e+05	3.150325e+05	3.144669e+05	3.158124e+05	3.136951e+05	3.142051e+05	3.124415e+05	3.069132e+05	3.030904e+05	2.966012e+05	2.881245e+05	2.825912e+05	2.709233e+05	2.669719e+05	2.702130e+05	2.708612e+05	2.776571e+05	2.843112e+05	2.879998e+05	2.933456e+05	2.971354e+05	2.955080e+05	2.987751e+05	2.969855e+05	2.902725e+05	2.866357e+05	2.811960e+05	2.707250e+05	2.331237e+05	1.926323e+05	1.836351e+05	1.993303e+05	2.129193e+05	2.292016e+05	2.478764e+05	2.564009e+05	2.666162e+05	2.776144e+05	2.825837e+05	2.858486e+05	2.896053e+05	2.882894e+05	2.873332e+05	2.855340e+05	2.806580e+05	2.772835e+05	2.736611e+05	2.669698e+05	2.637322e+05	2.624382e+05	2.599135e+05	2.607692e+05	2.594987e+05	2.603984e+05	2.628407e+05	2.631046e+05	2.651724e+05	2.648372e+05	2.659877e+05	2.679785e+05	2.674931e+05	2.704970e+05	2.708263e+05	2.730652e+05	2.789511e+05	2.801206e+05	2.861902e+05	2.922796e+05	2.962362e+05	3.030479e+05	3.075501e+05	3.119476e+05	3.170596e+05	3.205480e+05	3.231290e+05	3.257897e+05	3.266923e+05	3.286226e+05	3.310911e+05	3.339025e+05	3.409351e+05	3.478466e+05	3.503197e+05	3.692415e+05	
SCALARS Pressure double 1
LOOKUP_TABLE default
1.327586e+05	1.008296e+05	9.284941e+04	8.259181e+04	7.551217e+04	6.938416e+04	6.680016e+04	6.335125e+04	6.046746e+04	5.622619e+04	5.208944e+04	4.673851e+04	4.206671e+04	3.642200e+04	3.246477e+04	3.337002e+04	4.415173e+04	7.940859e+04	9.887804e+04	9.812978e+04	9.871276e+04	9.862524e+04	9.807581e+04	9.792818e+04	9.707133e+04	9.561262e+04	9.463534e+04	9.239791e+04	8.997466e+04	8.713686e+04	8.304658e+04	7.781839e+04	7.345827e+04	6.697823e+04	6.047840e+04	5.678832e+04	4.892923e+04	4.290857e+04	4.017375e+04	3.751552e+04	4.012052e+04	6.171686e+04	8.708192e+04	9.381530e+04	9.575929e+04	9.508781e+04	9.567911e+04	9.403039e+04	9.048116e+04	8.787581e+04	8.387375e+04	7.813447e+04	7.323485e+04	6.787122e+04	6.161508e+04	5.818377e+04	5.507819e+04	5.595765e+04	6.608337e+04	7.542936e+04	8.019220e+04	8.301248e+04	8.512023e+04	8.700644e+04	8.844927e+04	8.956333e+04	9.053756e+04	9.138428e+04	9.206255e+04	9.271138e+04	9.330937e+04	9.382085e+04	9.432672e+04	9.476842e+04	9.523309e+04	9.570570e+04	9.616165e+04	9.669255e+04	9.718277e+04	9.777620e+04	9.839158e+04	9.895461e+04	9.964300e+04	1.001781e+05	1.008044e+05	1.013708e+05	1.019356e+05	1.025403e+05	1.030573e+05	1.036307e+05	1.041683e+05	1.047159e+05	1.052916e+05	1.058465e+05	1.064263e+05	1.070553e+05	1.076813e+05	1.086671e+05	1.085647e+05	1.091002e+05	1.163131e+05	1.132383e+05	1.143106e+05	1.145126e+05	1.148256e+05	1.151436e+05	1.153892e+05	1.157641e+05	1.160161e+05	1.163553e+05	1.167328e+05	1.170874e+05	1.177965e+05	1.178956e+05	1.188269e+05	1.192158e+05	1.189960e+05	1.195668e+05	1.186142e+05	1.185692e+05	1.175931e+05	1.145512e+05	1.119587e+05	1.082633e+05	1.034391e+05	9.990456e+04	9.384902e+04	9.104442e+04	9.250250e+04	9.335009e+04	9.674407e+04	1.006140e+05	1.030590e+05	1.059658e+05	1.082101e+05	1.078000e+05	1.091790e+05	1.084858e+05	1.049464e+05	1.023523e+05	9.934330e+04	9.400263e+04	7.532613e+04	5.462779e+04	4.966494e+04	5.533706e+04	6.193434e+04	6.938447e+04	7.807279e+04	8.290941e+04	8.807940e+04	9.371556e+04	9.675402e+04	9.857672e+04	1.004477e+05	1.000326e+05	9.939313e+04	9.836364e+04	9.587130e+04	9.386994e+04	9.189791e+04	8.849225e+04	8.651848e+04	8.580911e+04	8.466080e+04	8.489208e+04	8.443315e+04	8.479588e+04	8.599194e+04	8.628761e+04	8.720051e+04	8.718947e+04	8.770920e+04	8.871703e+04	8.871458e+04	9.004505e+04	9.044723e+04	9.159093e+04	9.454615e+04	9.565442e+04	9.862521e+04	1.021125e+05	1.046730e+05	1.083374e+05	1.111831e+05	1.138112e+05	1.167630e+05	1.189792e+05	1.206368e+05	1.222405e+05	1.230429e+05	1.242219e+05	1.258418e+05	1.279035e+05	1.320839e+05	1.366582e+05	1.391472e+05	1.476574e+05	
SCALARS Temperature double 1
LOOKUP_TABLE default
2.943791e+02	2.812980e+02	2.740766e+02	2.641151e+02	2.562933e+02	2.507361e+02	2.471294e+02	2.435604e+02	2.399351e+02	2.351343e+02	2.294814e+02	2.228010e+02	2.152789e+02	2.073479e+02	1.999215e+02	2.065321e+02	2.297715e+02	2.705373e+02	2.814180e+02	2.821879e+02	2.830535e+02	2.835244e+02	2.833454e+02	2.831118e+02	2.823626e+02	2.813634e+02	2.802074e+02	2.783611e+02	2.761307e+02	2.734507e+02	2.695584e+02	2.649246e+02	2.602551e+02	2.532751e+02	2.465612e+02	2.410128e+02	2.315982e+02	2.241790e+02	2.184548e+02	2.146418e+02	2.223866e+02	2.575545e+02	2.774894e+02	2.821164e+02	2.831750e+02	2.834907e+02	2.836164e+02	2.819369e+02	2.794597e+02	2.769301e+02	2.728511e+02	2.678177e+02	2.629051e+02	2.568309e+02	2.506022e+02	2.460525e+02	2.420672e+02	2.440596e+02	2.564961e+02	2.658967e+02	2.701473e+02	2.727561e+02	2.747384e+02	2.764289e+02	2.776903e+02	2.787011e+02	2.795736e+02	2.802812e+02	2.809308e+02	2.815294e+02	2.820668e+02	2.825209e+02	2.829362e+02	2.833077e+02	2.836943e+02	2.841138e+02	2.845309e+02	2.849628e+02	2.853834e+02	2.858805e+02	2.863491e+02	2.868431e+02	2.873321e+02	2.878066e+02	2.882960e+02	2.887532e+02	2.892276e+02	2.896978e+02	2.901587e+02	2.905930e+02	2.910206e+02	2.914822e+02	2.919361e+02	2.923890e+02	2.928758e+02	2.933678e+02	2.939270e+02	2.945745e+02	2.954822e+02	2.932072e+02	2.848291e+02	2.867379e+02	2.868341e+02	2.870427e+02	2.872835e+02	2.874732e+02	2.876876e+02	2.879309e+02	2.881610e+02	2.883656e+02	2.886429e+02	2.889004e+02	2.892844e+02	2.895501e+02	2.899422e+02	2.903587e+02	2.903484e+02	2.904570e+02	2.901890e+02	2.897673e+02	2.892127e+02	2.874602e+02	2.852971e+02	2.828203e+02	2.793967e+02	2.762470e+02	2.721115e+02	2.689611e+02	2.697282e+02	2.710818e+02	2.732915e+02	2.764528e+02	2.787295e+02	2.806680e+02	2.823458e+02	2.826967e+02	2.830522e+02	2.829774e+02	2.808463e+02	2.782919e+02	2.761074e+02	2.725902e+02	2.582855e+02	2.336677e+02	2.251511e+02	2.298168e+02	2.383247e+02	2.457716e+02	2.533313e+02	2.584317e+02	2.626380e+02	2.669259e+02	2.697627e+02	2.712073e+02	2.723674e+02	2.724511e+02	2.718264e+02	2.709930e+02	2.692953e+02	2.674928e+02	2.658809e+02	2.633000e+02	2.612576e+02	2.606061e+02	2.598594e+02	2.597499e+02	2.596448e+02	2.598066e+02	2.607232e+02	2.612006e+02	2.617311e+02	2.619554e+02	2.622726e+02	2.630561e+02	2.634091e+02	2.641453e+02	2.647878e+02	2.656488e+02	2.677290e+02	2.692255e+02	2.710656e+02	2.738355e+02	2.761390e+02	2.785279e+02	2.808280e+02	2.827226e+02	2.846637e+02	2.863018e+02	2.875179e+02	2.885671e+02	2.893601e+02	2.901270e+02	2.912806e+02	2.929285e+02	2.953318e+02	2.983159e+02	3.006700e+02	3.021264e+02	
SCALARS Mach double 1
LOOKUP_TABLE default
3.640873e-01	6.092916e-01	7.160712e-01	8.489287e-01	9.461864e-01	1.012881e+00	1.055402e+00	1.097025e+00	1.138944e+00	1.194055e+00	1.258592e+00	1.334717e+00	1.420711e+00	1.512242e+00	1.599236e+00	1.521729e+00	1.255286e+00	7.647741e-01	6.074100e-01	5.952298e-01	5.813131e-01	5.736366e-01	5.765638e-01	5.803655e-01	5.924399e-01	6.082659e-01	6.262123e-01	6.541460e-01	6.868406e-01	7.248282e-01	7.779209e-01	8.385700e-01	8.975119e-01	9.826090e-01	1.062056e+00	1.126515e+00	1.234454e+00	1.319008e+00	1.384337e+00	1.428024e+00	1.339442e+00	9.308072e-01	6.670512e-01	5.963687e-01	5.793391e-01	5.741875e-01	5.721269e-01	5.992203e-01	6.376280e-01	6.752442e-01	7.331573e-01	8.009939e-01	8.642964e-01	9.396432e-01	1.014470e+00	1.068005e+00	1.114329e+00	1.091227e+00	9.437200e-01	8.260441e-01	7.700266e-01	7.344705e-01	7.067381e-01	6.825298e-01	6.640921e-01	6.490647e-01	6.358972e-01	6.250773e-01	6.150260e-01	6.056583e-01	5.971572e-01	5.899046e-01	5.832123e-01	5.771781e-01	5.708481e-01	5.639184e-01	5.569621e-01	5.496897e-01	5.425357e-01	5.339836e-01	5.258237e-01	5.171092e-01	5.083684e-01	4.997684e-01	4.907711e-01	4.822442e-01	4.732617e-01	4.642162e-01	4.552069e-01	4.465762e-01	4.379400e-01	4.284499e-01	4.189384e-01	4.092590e-01	3.986272e-01	3.876226e-01	3.747712e-01	3.593794e-01	3.367467e-01	3.912443e-01	5.519484e-01	5.189749e-01	5.172696e-01	5.135565e-01	5.092429e-01	5.058233e-01	5.019372e-01	4.974965e-01	4.932672e-01	4.894808e-01	4.843130e-01	4.794708e-01	4.721753e-01	4.670740e-01	4.594582e-01	4.512500e-01	4.514544e-01	4.492930e-01	4.546079e-01	4.628673e-01	4.735448e-01	5.060583e-01	5.440091e-01	5.850864e-01	6.385822e-01	6.851610e-01	7.433504e-01	7.858801e-01	7.756498e-01	7.574044e-01	7.270453e-01	6.821829e-01	6.486389e-01	6.191063e-01	5.927086e-01	5.870779e-01	5.813327e-01	5.825464e-01	6.163395e-01	6.551768e-01	6.871771e-01	7.367624e-01	9.218444e-01	1.210825e+00	1.307931e+00	1.254769e+00	1.157475e+00	1.071284e+00	9.819363e-01	9.200485e-01	8.676721e-01	8.126747e-01	7.751871e-01	7.556999e-01	7.398327e-01	7.386797e-01	7.472573e-01	7.586088e-01	7.814318e-01	8.052605e-01	8.262490e-01	8.592959e-01	8.850145e-01	8.931448e-01	9.024233e-01	9.037801e-01	9.050823e-01	9.030779e-01	8.916864e-01	8.857266e-01	8.790829e-01	8.762670e-01	8.722781e-01	8.623870e-01	8.579127e-01	8.485436e-01	8.403250e-01	8.292478e-01	8.021602e-01	7.823632e-01	7.576238e-01	7.194530e-01	6.867208e-01	6.516565e-01	6.166242e-01	5.866620e-01	5.547347e-01	5.266505e-01	5.050152e-01	4.857299e-01	4.707263e-01	4.558315e-01	4.326167e-01	3.974604e-01	3.405910e-01	2.546077e-01	1.586531e-01	3.078101e-02	
SCALARS Pressure_Coefficient double 1
LOOKUP_TABLE default