# vtk DataFile Version 3.0
vtk output
ASCII
DATASET UNSTRUCTURED_GRID
POINTS 1817 double
1.000000e+02	0.000000e+00	0.0	9.917900e+01	1.278772e+01	0.0	9.672949e+01	2.536546e+01	0.0	9.269168e+01	3.752670e+01	0.0	8.713187e+01	4.907176e+01	0.0	8.014136e+01	5.981105e+01	0.0	7.183494e+01	6.956826e+01	0.0	6.234898e+01	7.818315e+01	0.0	5.183926e+01	8.551428e+01	0.0	4.047833e+01	9.144126e+01	0.0	2.845276e+01	9.586679e+01	0.0	1.595999e+01	9.871818e+01	0.0	3.205158e+00	9.994862e+01	0.0	-9.602303e+00	9.953791e+01	0.0	-2.225209e+01	9.749279e+01	0.0	-3.453651e+01	9.384684e+01	0.0	-4.625383e+01	8.865993e+01	0.0	-5.721167e+01	8.201723e+01	0.0	-6.723009e+01	7.402780e+01	0.0	-7.614460e+01	6.482284e+01	0.0	-8.380881e+01	5.455349e+01	0.0	-9.009689e+01	4.338837e+01	0.0	-9.490557e+01	3.151082e+01	0.0	-9.815592e+01	1.911586e+01	0.0	-9.979454e+01	6.407022e+00	0.0	-9.979454e+01	-6.407022e+00	0.0	-9.815592e+01	-1.911586e+01	0.0	-9.490557e+01	-3.151082e+01	0.0	-9.009689e+01	-4.338837e+01	0.0	-8.380881e+01	-5.455349e+01	0.0	-7.614460e+01	-6.482284e+01	0.0	-6.723009e+01	-7.402780e+01	0.0	-5.721167e+01	-8.201723e+01	0.0	-4.625383e+01	-8.865993e+01	0.0	-3.453651e+01	-9.384684e+01	0.0	-2.225209e+01	-9.749279e+01	0.0	-9.602303e+00	-9.953791e+01	0.0	3.205158e+00	-9.994862e+01	0.0	1.595999e+01	-9.871818e+01	0.0	2.845276e+01	-9.586679e+01	0.0	4.047833e+01	-9.144126e+01	0.0	5.183926e+01	-8.551428e+01	0.0	6.234898e+01	-7.818315e+01	0.0	7.183494e+01	-6.956826e+01	0.0	8.014136e+01	-5.981105e+01	0.0	8.713187e+01	-4.907176e+01	0.0	9.269168e+01	-3.752670e+01	0.0	9.672949e+01	-2.536546e+01	0.0	9.917900e+01	-1.278772e+01	0.0	0.000000e+00	0.000000e+00	0.0	3.375202e-03	3.688904e-03	0.0	7.012861e-03	7.357636e-03	0.0	1.148693e-02	1.034504e-02	0.0	1.620840e-02	1.329678e-02	0.0	2.140595e-02	1.582386e-02	0.0	2.682878e-02	1.835291e-02	0.0	3.258750e-02	2.064507e-02	0.0	3.857922e-02	2.292980e-02	0.0	4.487242e-02	2.503290e-02	0.0	5.142781e-02	2.704440e-02	0.0	5.828221e-02	2.885549e-02	0.0	6.543551e-02	3.039862e-02	0.0	7.286804e-02	3.177796e-02	0.0	8.060454e-02	3.276096e-02	0.0	8.858151e-02	3.378523e-02	0.0	9.679084e-02	3.492860e-02	0.0	1.051769e-01	3.649467e-02	0.0	1.137633e-01	3.836170e-02	0.0	1.224600e-01	4.079660e-02	0.0	1.313307e-01	4.356196e-02	0.0	1.404137e-01	4.649406e-02	0.0	1.496909e-01	4.964860e-02	0.0	1.592080e-01	5.288465e-02	0.0	1.690688e-01	5.587228e-02	0.0	1.791853e-01	5.888324e-02	0.0	1.896029e-01	6.171195e-02	0.0	2.004333e-01	6.389957e-02	0.0	2.115009e-01	6.613511e-02	0.0	2.229290e-01	6.753203e-02	0.0	2.346480e-01	6.853968e-02	0.0	2.465999e-01	6.940248e-02	0.0	2.588105e-01	6.927713e-02	0.0	2.712353e-01	6.914958e-02	0.0	2.838375e-01	6.841694e-02	0.0	2.966194e-01	6.729964e-02	0.0	3.095813e-01	6.609230e-02	0.0	3.226431e-01	6.419063e-02	0.0	3.358725e-01	6.226457e-02	0.0	3.492259e-01	6.011086e-02	0.0	3.626995e-01	5.777972e-02	0.0	3.763063e-01	5.542870e-02	0.0	3.900442e-01	5.312115e-02	0.0	4.038893e-01	5.079560e-02	0.0	4.178664e-01	4.870815e-02	0.0	4.319577e-01	4.683385e-02	0.0	4.461178e-01	4.497325e-02	0.0	4.603987e-01	4.373223e-02	0.0	4.747169e-01	4.248797e-02	0.0	4.890790e-01	4.156224e-02	0.0	5.034657e-01	4.089369e-02	0.0	5.178461e-01	4.026569e-02	0.0	5.322173e-01	4.009707e-02	0.0	5.465510e-01	3.992888e-02	0.0	5.608313e-01	4.002746e-02	0.0	5.750442e-01	4.029800e-02	0.0	5.891740e-01	4.062148e-02	0.0	6.031956e-01	4.132080e-02	0.0	6.171086e-01	4.201470e-02	0.0	6.308815e-01	4.298078e-02	0.0	6.445097e-01	4.409766e-02	0.0	6.579866e-01	4.525409e-02	0.0	6.712706e-01	4.675739e-02	0.0	6.843865e-01	4.824166e-02	0.0	6.973229e-01	4.971355e-02	0.0	7.100707e-01	5.116930e-02	0.0	7.226257e-01	5.255280e-02	0.0	7.350276e-01	5.331876e-02	0.0	7.472156e-01	5.407152e-02	0.0	7.591842e-01	5.393039e-02	0.0	7.709267e-01	5.324827e-02	0.0	7.823737e-01	5.212673e-02	0.0	7.934001e-01	4.969564e-02	0.0	8.041900e-01	4.731668e-02	0.0	8.144584e-01	4.396778e-02	0.0	8.244760e-01	4.064263e-02	0.0	8.342081e-01	3.725843e-02	0.0	8.436751e-01	3.387895e-02	0.0	8.529492e-01	3.072428e-02	0.0	8.621039e-01	2.802156e-02	0.0	8.710154e-01	2.539062e-02	0.0	8.798008e-01	2.327543e-02	0.0	8.883644e-01	2.130622e-02	0.0	8.967059e-01	1.949689e-02	0.0	9.048477e-01	1.794375e-02	0.0	9.127479e-01	1.643669e-02	0.0	9.204231e-01	1.505023e-02	0.0	9.278652e-01	1.372301e-02	0.0	9.350723e-01	1.242739e-02	0.0	9.420468e-01	1.115503e-02	0.0	9.487958e-01	9.923503e-03	0.0	9.553180e-01	8.703525e-03	0.0	9.616231e-01	7.524147e-03	0.0	9.677119e-01	6.364733e-03	0.0	9.735919e-01	5.241365e-03	0.0	9.792654e-01	4.140339e-03	0.0	9.847391e-01	3.071407e-03	0.0	9.900168e-01	2.028602e-03	0.0	9.951027e-01	1.007514e-03	0.0	1.000000e+00	0.000000e+00	0.0	9.950043e-01	2.070715e-04	0.0	9.898198e-01	4.036934e-04	0.0	9.844402e-01	5.518056e-04	0.0	9.788612e-01	6.561398e-04	0.0	9.730785e-01	7.364375e-04	0.0	9.670869e-01	7.592840e-04	0.0	9.608825e-01	7.590596e-04	0.0	9.544605e-01	6.931982e-04	0.0	9.478166e-01	6.106848e-04	0.0	9.409479e-01	4.316949e-04	0.0	9.338484e-01	2.466938e-04	0.0	9.265178e-01	-4.535448e-05	0.0	9.189498e-01	-3.691310e-04	0.0	9.111418e-01	-7.393875e-04	0.0	9.030920e-01	-1.180126e-03	0.0	8.947947e-01	-1.634413e-03	0.0	8.862495e-01	-2.136686e-03	0.0	8.774527e-01	-2.657743e-03	0.0	8.684020e-01	-3.187645e-03	0.0	8.590962e-01	-3.724690e-03	0.0	8.495351e-01	-4.276507e-03	0.0	8.397185e-01	-4.843436e-03	0.0	8.296468e-01	-5.425099e-03	0.0	8.193323e-01	-6.191769e-03	0.0	8.087677e-01	-7.008711e-03	0.0	7.979771e-01	-8.097030e-03	0.0	7.869546e-01	-9.364196e-03	0.0	7.757144e-01	-1.084112e-02	0.0	7.642850e-01	-1.270379e-02	0.0	7.526232e-01	-1.460435e-02	0.0	7.408285e-01	-1.704641e-02	0.0	7.288215e-01	-1.957011e-02	0.0	7.166525e-01	-2.235364e-02	0.0	7.043517e-01	-2.549288e-02	0.0	6.918565e-01	-2.868172e-02	0.0	6.792974e-01	-3.235547e-02	0.0	6.665900e-01	-3.617457e-02	0.0	6.537433e-01	-4.012030e-02	0.0	6.408413e-01	-4.442172e-02	0.0	6.277984e-01	-4.877008e-02	0.0	6.146219e-01	-5.314784e-02	0.0	6.013249e-01	-5.755424e-02	0.0	5.879234e-01	-6.199526e-02	0.0	5.742921e-01	-6.602397e-02	0.0	5.605765e-01	-7.005821e-02	0.0	5.467068e-01	-7.376948e-02	0.0	5.326468e-01	-7.695929e-02	0.0	5.185498e-01	-8.015750e-02	0.0	5.042645e-01	-8.248708e-02	0.0	4.899464e-01	-8.468506e-02	0.0	4.755900e-01	-8.649021e-02	0.0	4.611821e-01	-8.766056e-02	0.0	4.468121e-01	-8.882783e-02	0.0	4.324522e-01	-8.904263e-02	0.0	4.181561e-01	-8.917090e-02	0.0	4.039547e-01	-8.883448e-02	0.0	3.898643e-01	-8.795011e-02	0.0	3.758837e-01	-8.707264e-02	0.0	3.621194e-01	-8.525158e-02	0.0	3.484914e-01	-8.343444e-02	0.0	3.350859e-01	-8.118957e-02	0.0	3.219164e-01	-7.850655e-02	0.0	3.089146e-01	-7.585771e-02	0.0	2.962544e-01	-7.254644e-02	0.0	2.837874e-01	-6.924922e-02	0.0	2.715318e-01	-6.593899e-02	0.0	2.595076e-01	-6.257419e-02	0.0	2.476922e-01	-5.926779e-02	0.0	2.360008e-01	-5.637509e-02	0.0	2.245041e-01	-5.364819e-02	0.0	2.132024e-01	-5.116055e-02	0.0	2.019631e-01	-4.965494e-02	0.0	1.909662e-01	-4.818180e-02	0.0	1.801618e-01	-4.736179e-02	0.0	1.695735e-01	-4.695427e-02	0.0	1.592375e-01	-4.658028e-02	0.0	1.491492e-01	-4.650204e-02	0.0	1.393166e-01	-4.642578e-02	0.0	1.297482e-01	-4.609181e-02	0.0	1.204419e-01	-4.556326e-02	0.0	1.113971e-01	-4.498839e-02	0.0	1.027017e-01	-4.355750e-02	0.0	9.425540e-02	-4.216758e-02	0.0	8.614569e-02	-4.039155e-02	0.0	7.833704e-02	-3.838682e-02	0.0	7.078836e-02	-3.636405e-02	0.0	6.356842e-02	-3.407210e-02	0.0	5.657573e-02	-3.185229e-02	0.0	4.985003e-02	-2.957213e-02	0.0	4.334716e-02	-2.735300e-02	0.0	3.711774e-02	-2.504256e-02	0.0	3.110870e-02	-2.277650e-02	0.0	2.547592e-02	-2.017481e-02	0.0	2.014260e-02	-1.746440e-02	0.0	1.521424e-02	-1.443810e-02	0.0	1.072926e-02	-1.113415e-02	0.0	6.565669e-03	-7.729057e-03	0.0	2.921027e-03	-4.036501e-03	0.0	8.489112e-01	3.991134e-02	0.0	8.406521e-01	4.536379e-02	0.0	8.687288e+01	2.722076e+01	0.0	8.228632e+01	3.604298e+01	0.0	7.736815e+01	2.670108e+01	0.0	7.559368e+01	-1.242619e+01	0.0	7.564629e+01	-2.489216e+01	0.0	8.704035e+01	-1.781536e+01	0.0	8.665322e+01	-4.259677e+00	0.0	3.534973e+01	2.297870e+01	0.0	4.553609e+01	2.812484e+01	0.0	3.786064e+01	3.666297e+01	0.0	7.290940e+01	3.417691e+01	0.0	6.868402e+01	-3.548691e+01	0.0	7.552267e+01	-4.385242e+01	0.0	8.112584e+01	-3.648397e+01	0.0	8.664673e+01	-2.841673e+01	0.0	5.385571e+01	2.186541e+01	0.0	4.350231e+01	1.726507e+01	0.0	5.150575e+01	1.195132e+01	0.0	5.683366e+01	-6.362408e+01	0.0	5.576590e+01	-5.351159e+01	0.0	4.889034e+01	-6.423274e+01	0.0	6.809092e+01	5.967848e+01	0.0	7.238273e+01	5.058378e+01	0.0	5.774066e+01	6.588527e+01	0.0	4.603386e+01	-7.387562e+01	0.0	5.462239e+01	-7.224508e+01	0.0	6.625548e+01	-4.647237e+01	0.0	5.199139e+01	7.522681e+01	0.0	3.623767e+01	7.366847e+01	0.0	2.762702e+01	7.483376e+01	0.0	3.215172e+01	6.605588e+01	0.0	6.292633e+01	-6.724916e+01	0.0	2.745730e+01	8.501625e+01	0.0	3.470605e+01	8.055308e+01	0.0	3.723180e+01	-6.664994e+01	0.0	2.601235e+01	-7.478195e+01	0.0	3.868790e+01	-7.983676e+01	0.0	-4.925229e+00	3.450576e+01	0.0	5.315738e+00	4.004007e+01	0.0	-3.054761e+00	4.640262e+01	0.0	1.975825e-01	8.275333e-02	0.0	1.852915e-01	7.829543e-02	0.0	1.975300e-01	7.376028e-02	0.0	5.687419e-01	4.965609e-02	0.0	5.586715e-01	5.357368e-02	0.0	9.074788e-01	3.147663e-02	0.0	9.036673e-01	2.440534e-02	0.0	9.104262e-01	2.371453e-02	0.0	8.987295e-01	2.865868e-02	0.0	9.250007e-01	1.969974e-02	0.0	9.190133e-01	2.296998e-02	0.0	8.824542e-01	3.270423e-02	0.0	8.861491e-01	4.056894e-02	0.0	8.763750e-01	4.070770e-02	0.0	1.340509e-01	-6.691847e-02	0.0	1.403193e-01	-7.870808e-02	0.0	1.475431e-01	-6.835251e-02	0.0	7.715147e-01	-2.075093e-02	0.0	7.587331e-01	-2.435800e-02	0.0	7.679249e-01	-3.075865e-02	0.0	7.391308e-01	-2.575883e-02	0.0	7.277196e-01	-2.975432e-02	0.0	7.111506e-01	-5.372013e-02	0.0	7.112750e-01	-4.074007e-02	0.0	7.003500e-01	-4.130971e-02	0.0	6.569333e-01	-2.231813e-01	0.0	7.188151e-01	-2.607293e-01	0.0	7.091539e-01	-1.892410e-01	0.0	6.121092e-01	-6.482807e-02	0.0	6.225111e-01	-6.014886e-02	0.0	5.829886e-01	-7.381657e-02	0.0	5.867264e-01	-8.618660e-02	0.0	5.946633e-01	-7.582154e-02	0.0	5.817602e-01	5.415258e-02	0.0	5.679206e-01	6.230098e-02	0.0	5.559447e-01	1.55
[...]
POINT_DATA 1817

SCALARS Density double 1
LOOKUP_TABLE default
1.291271e+00	1.291361e+00	1.291986e+00	1.292252e+00	1.292161e+00	1.292092e+00	1.292076e+00	1.292046e+00	1.292005e+00	1.291975e+00	1.291950e+00	1.291941e+00	1.291954e+00	1.291999e+00	1.292064e+00	1.292128e+00	1.292182e+00	1.292224e+00	1.292255e+00	1.292277e+00	1.292292e+00	1.292304e+00	1.292312e+00	1.292320e+00	1.292326e+00	1.292333e+00	1.292341e+00	1.292352e+00	1.292365e+00	1.292381e+00	1.292403e+00	1.292431e+00	1.292464e+00	1.292509e+00	1.292560e+00	1.292610e+00	1.292663e+00	1.292701e+00	1.292700e+00	1.292675e+00	1.292629e+00	1.292570e+00	1.292515e+00	1.292460e+00	1.292403e+00	1.292359e+00	1.292397e+00	1.292299e+00	1.291798e+00	1.568170e+00	1.193264e+00	1.215007e+00	1.159203e+00	1.136200e+00	1.117442e+00	1.108181e+00	1.092539e+00	1.075120e+00	1.054091e+00	1.040542e+00	1.034901e+00	1.057484e+00	1.110853e+00	1.178447e+00	1.244295e+00	1.281853e+00	1.299556e+00	1.304837e+00	1.296596e+00	1.265057e+00	1.234610e+00	1.201112e+00	1.145337e+00	1.097822e+00	1.056745e+00	9.791966e-01	9.234246e-01	8.640580e-01	7.890644e-01	7.586746e-01	7.019718e-01	6.549425e-01	6.295436e-01	5.899804e-01	5.734020e-01	5.482548e-01	5.240071e-01	5.204317e-01	5.107561e-01	5.063239e-01	5.198981e-01	6.074213e-01	9.181126e-01	1.138160e+00	1.162546e+00	1.181242e+00	1.184130e+00	1.189468e+00	1.196914e+00	1.196744e+00	1.200383e+00	1.200383e+00	1.196780e+00	1.197868e+00	1.193295e+00	1.192634e+00	1.187974e+00	1.181340e+00	1.177352e+00	1.165640e+00	1.157548e+00	1.142529e+00	1.118428e+00	1.095774e+00	1.067623e+00	1.020539e+00	9.842701e-01	9.379162e-01	8.864191e-01	8.765715e-01	8.715560e-01	9.311286e-01	1.011786e+00	1.062823e+00	1.121779e+00	1.152075e+00	1.180338e+00	1.205010e+00	1.214740e+00	1.224234e+00	1.231410e+00	1.229937e+00	1.235541e+00	1.235957e+00	1.235497e+00	1.237801e+00	1.237877e+00	1.239388e+00	1.242130e+00	1.244475e+00	1.247449e+00	1.250988e+00	1.254356e+00	1.258467e+00	1.262470e+00	1.267067e+00	1.275923e+00	1.276056e+00	1.266517e+00	1.366862e+00	1.346050e+00	1.352425e+00	1.352356e+00	1.354724e+00	1.355890e+00	1.356963e+00	1.358673e+00	1.359080e+00	1.359845e+00	1.360754e+00	1.359173e+00	1.359899e+00	1.358701e+00	1.358025e+00	1.357891e+00	1.357099e+00	1.357327e+00	1.358311e+00	1.360106e+00	1.362137e+00	1.367938e+00	1.371285e+00	1.375873e+00	1.379844e+00	1.380400e+00	1.384558e+00	1.381447e+00	1.383041e+00	1.381481e+00	1.374258e+00	1.374310e+00	1.365679e+00	1.362456e+00	1.356902e+00	1.343517e+00	1.336248e+00	1.322656e+00	1.303768e+00	1.286914e+00	1.269424e+00	1.239090e+00	1.225696e+00	1.225333e+00	1.066224e+00	7.620254e-01	6.531766e-01	6.663784e-01	7.013325e-01	7.192926e-01	7.552494e-01	7.768726e-01	8.159527e-01	8.566741e-01	8.774275e-01	9.179030e-01	9.384133e-01	9.833286e-01	1.034446e+00	1.062735e+00	1.109673e+00	1.134436e+00	1.174814e+00	1.230197e+00	1.264492e+00	1.297926e+00	1.338243e+00	1.363862e+00	1.380519e+00	1.412706e+00	1.418573e+00	1.417636e+00	1.424475e+00	1.405815e+00	1.392740e+00	1.377141e+00	1.341772e+00	1.312673e+00	1.294022e+00	1.246031e+00	1.236331e+00	1.252178e+00	1.255341e+00	1.286755e+00	1.304575e+00	1.331319e+00	1.360962e+00	1.381582e+00	1.400286e+00	1.417978e+00	1.427454e+00	1.444510e+00	1.470915e+00	1.501327e+00	1.540837e+00	1.589203e+00	1.598502e+00	1.691933e+00	1.190127e+00	1.169824e+00	1.292103e+00	1.292151e+00	1.292059e+00	1.292036e+00	1.292295e+00	1.292122e+00	1.291658e+00	1.292006e+00	1.292059e+00	1.291896e+00	1.292098e+00	1.292356e+00	1.292351e+00	1.292322e+00	1.292307e+00	1.292050e+00	1.291881e+00	1.291815e+00	1.292490e+00	1.292457e+00	1.292534e+00	1.292052e+00	1.292072e+00	1.292021e+00	1.292570e+00	1.292525e+00	1.292380e+00	1.292000e+00	1.291923e+00	1.291879e+00	1.291884e+00	1.292479e+00	1.291917e+00	1.291930e+00	1.292611e+00	1.292686e+00	1.292621e+00	1.291397e+00	1.291355e+00	1.291576e+00	9.920649e-01	1.045447e+00	9.709905e-01	1.195814e+00	1.197883e+00	1.238424e+00	1.236243e+00	1.237378e+00	1.235766e+00	1.239728e+00	1.239440e+00	1.228945e+00	1.230635e+00	1.224133e+00	1.323695e+00	1.339048e+00	1.346665e+00	1.382574e+00	1.380575e+00	1.381662e+00	1.375511e+00	1.371687e+00	1.362848e+00	1.363435e+00	1.358064e+00	1.281188e+00	1.309328e+00	1.318909e+00	1.262389e+00	1.279485e+00	1.233479e+00	1.224687e+00	1.232246e+00	1.193895e+00	1.196997e+00	1.208886e+00	1.212552e+00	1.204627e+00	1.198971e+00	1.198743e+00	1.196904e+00	1.197481e+00	1.204648e+00	1.048628e+00	1.072447e+00	1.026898e+00	1.117814e+00	1.127148e+00	1.109759e+00	9.660461e-01	1.362372e+00	1.364025e+00	1.364474e+00	1.361245e+00	1.362717e+00	1.362642e+00	1.364945e+00	1.362352e+00	1.362338e+00	1.360187e+00	1.362539e+00	1.359630e+00	1.338939e+00	1.330123e+00	1.340213e+00	1.259478e+00	1.369418e+00	1.245857e+00	1.231324e+00	1.205271e+00	1.365483e+00	1.351482e+00	1.107193e+00	1.094463e+00	1.146005e+00	9.938088e-01	1.120673e+00	1.135970e+00	1.076837e+00	1.140884e+00	1.124006e+00	1.093841e+00	1.143857e+00	1.185365e+00	8.959703e-01	9.279612e-01	8.594927e-01	1.225428e+00	1.247828e+00	1.255489e+00	6.921613e-01	7.133783e-01	6.631629e-01	6.411890e-01	1.272633e+00	1.303578e+00	1.323502e+00	1.314379e+00	1.338015e+00	1.344070e+00	1.383108e+00	1.382383e+00	1.285165e+00	1.290159e+00	1.121058e+00	1.181181e+00	1.196870e+00	1.372293e+00	1.370901e+00	1.374454e+00	1.381354e+00	1.382999e+00	1.382475e+00	1.248359e+00	1.259022e+00	1.381527e+00	1.383039e+00	1.382745e+00	8.227204e-01	1.007147e+00	1.021793e+00	1.222407e+00	1.139073e+00	1.001189e+00	1.378860e+00	1.375838e+00	1.377357e+00	1.377401e+00	7.048511e-01	1.380411e+00	1.371646e+00	1.209198e+00	1.187825e+00	1.190819e+00	1.186828e+00	1.161689e+00	1.174715e+00	1.170342e+00	1.166704e+00	1.133915e+00	1.114397e+00	1.184073e+00	1.181670e+00	1.196468e+00	1.198515e+00	1.199171e+00	1.093362e+00	1.074638e+00	9.539315e-01	9.080274e-01	9.242809e-01	1.199154e+00	9.091604e-01	1.158845e+00	1.141541e+00	1.210138e+00	1.166196e+00	1.150347e+00	1.137933e+00	1.153448e+00	1.357738e+00	1.357088e+00	1.360427e+00	1.359889e+00	1.362117e+00	9.710857e-01	1.027339e+00	1.041917e+00	1.074973e+00	1.099363e+00	8.341697e-01	5.918046e-01	5.446149e-01	5.866758e-01	7.254662e-01	8.277474e-01	8.330758e-01	1.291036e+00	1.290239e+00	1.291411e+00	1.256501e+00	1.253934e+00	1.234188e+00	1.268122e+00	1.269360e+00	1.254393e+00	1.255900e+00	1.259812e+00	1.265939e+00	1.233192e+00	1.268818e+00	1.273158e+00	1.276540e+00	1.225518e+00	1.267980e+00	1.275057e+00	1.277047e+00	1.289170e+00	1.289980e+00	1.325455e+00	1.321144e+00	1.328154e+00	1.293078e+00	1.274215e+00	1.278173e+00	1.265507e+00	1.299032e+00	1.319039e+00	1.307646e+00	1.282023e+00	1.296908e+00	1.288174e+00	1.361437e+00	1.370075e+00	1.369358e+00	1.374201e+00	1.370332e+00	7.392635e-01	7.642079e-01	7.810763e-01	7.495043e-01	7.990456e-01	7.504212e-01	8.185408e-01	1.310999e+00	1.283027e+00	1.295021e+00	1.341223e+00	1.352213e+00	1.406993e+00	1.408627e+00	1.309140e+00	1.316075e+00	1.327461e+00	1.393986e+00	1.393748e+00	1.405529e+00	1.378185e+00	1.380783e+00	1.290352e+00	1.266892e+00	1.288880e+00	1.270628e+00	1.233846e+00	1.255638e+00	1.267797e+00	1.332345e+00	1.304870e+00	1.365973e+00	1.386109e+00	1.372295e+00	1.313454e+00	1.306638e+00	1.312116e+00	1.347968e+00	8.060969e-01	8.592119e-01	1.153921e+00	1.225731e+00	8.707476e-01	9.215479e-01	8.918164e-01	1.162536e+00	1.143709e+00	1.096026e+00	1.064451e+00	1.043243e+00	1.010536e+00	1.292703e+00	1.292666e+00	9.935396e-01	9.778063e-01	1.158449e+00	1.211459e+00	1.141675e+00	1.124593e+00	1.093237e+00	1.130139e+00	1.301812e+00	1.298648e+00	1.299806e+00	1.189993e+00	1.292671e+00	1.292656e+00	1.292715e+00	1.167646e+00	1.148684e+00	1.296739e+00	1.296544e+00	1.298432e+00	1.183040e+00	1.166615e+00	1.287652e+00	1.248437e+00	1.267352e+00	1.292613e+00	1.292588e+00	1.433419e+00	1.427431e+00	1.496579e+00	1.474307e+00	1.444191e+00	1.461838e+00	1.445242e+00	1.499179e+00	1.564110e+00	1.525574e+00	1.545930e+00	1.292793e+00	1.292755e+00	1.292823e+00	1.437125e+00	1.457904e+00	1.464734e+00	1.564460e+00	1.595023e+00	1.457117e+00	1.486821e+00	1.590514e+00	1.614558e+00	1.618578e+00	1.646433e+00	1.627857e+00	1.400766e+00	1.430423e+00	1.417490e+00	1.295060e+00	1.295078e+00	1.294048e+00	1.293225e+00	1.293145e+00	1.293489e+00	1.292558e+00	1.292498e+00	1.292589e+00	1.299809e+00	1.334804e+00	1.274576e+00	1.292541e+00	1.289492e+00	1.292027e+00	1.295802e+00	1.292385e+00	1.292382e+00	1.292312e+00	1.292447e+00	1.292484e+00	1.292430e+00	1.292411e+00	1.292420e+00	1.292382e+00	1.292376e+00	1.292361e+00	1.292341e+00	1.292335e+00	1.292308e+00	1.292321e+00	1.292332e+00	1.292284e+00	1.292270e+00	1.292293e+00	1.249381e+00	1.242042e+00	1.292183e+00	1.292155e+00	1.292082e+00	1.291983e+00	1.292238e+00	1.291812e+00	1.292237e+00	1.292251e+00	1.226043e+00	1.259061e+00	1.226008e+00	1.292168e+00	1.294539e+00	1.297042e+00	1.290971e+00	1.289212e+00	1.289492e+00	1.207044e+00	1.160829e+00	1.292058e+00	1.292101e+00	1.286361e+00	1.286533e+00	5.832072e-01	6.145261e-01	7.173117e-01	7.644712e-01	1.292052e+00	1.291998e+00	8.021376e-01	9.111711e-01	8.367193e-01	5.398372e-01	5.861014e-01	5.486756e-01	1.291990e+00	5.281510e-01	5.047285e-01	6.413214e-01	6.804623e-01	1.301470e+00	1.302372e+00	1.307720e+00	1.287347e+00	1.290589e+00	1.292772e+00	1.289443e+00	1.291645e+00	1.290772e+00	1.291720e+00	1.291713e+00	1.291584e+00	1.220112e+00	1.246793e+00	1.235914e+00	1.291912e+00	1.291862e+00	1.107302e+00	1.080357e+00	1.202313e+00	1.286558e+00	1.292356e+00	1.292351e+00	1.283991e+00	1.291059e+00	1.291870e+00	1.292115e+00	1.291917e+00	1.292907e+00	1.292906e+00	1.293396e+00	1.356531e+00	1.354587e+00	1.355850e+00	1.293234e+00	1.293739e+00	1.293177e+00	1.292404e+00	1.292583e+00	1.292512e+00	1.292593e+00	1.292240e+00	1.292575e+00	1.292718e+00	1.293167e+00	1.291956e+00	1.291965e+00	1.291909e+00	1.291584e+00	1.291456e+00	1.291899e+00	1.291727e+00	1.292433e+00	1.292384e+00	1.292421e+00	1.291692e+00	1.291792e+00	1.291935e+00	1.292844e+00	1.292679e+00	1.292870e+00	1.292223e+00	1.292224e+00	1.292091e+00	1.313275e+00	1.315104e+00	1.306026e+00	1.292290e+00	1.321943e+00	1.318651e+00	1.331145e+00	1.291922e+00	1.291823e+00	1.291675e+00	1.291552e+00	1.292099e+00	1.291916e+00	1.288692e+00	1.288904e+00	1.292526e+00	1.292421e+00	1.292710e+00	1.292356e+00	1.292386e+00	1.292331e+00	1.292341e+00	1.292311e+00	1.292286e+00	1.292247e+00	1.291930e+00	1.291883e+00	1.292980e+00	1.292841e+00	1.292887e+00	1.292103e+00	1.292059e+00	1.292000e+00	1.291940e+00	1.291987e+00	1.291980e+00	1.291655e+00	1.291612e+00	1.292245e+00	1.292347e+00	1.292573e+00	1.292546e+00	1.292464e+00	1.292561e+00	1.292050e+00	1.292143e+00	1.292364e+00	1.292117e+00	9.336246e-01	1.263942e+00	1.281521e+00	1.274206e+00	1.291495e+00	1.354201e+00	1.274704e+00	1.291825e+00	1.291679e+00	1.292299e+00	1.292767e+00	1.292934e+00	1.292810e+00	1.292752e+00	1.292805e+00	1.291750e+00	1.291910e+00	1.292448e+00	1.292489e+00	1.292522e+00	1.291413e+00	1.292450e+00	1.292387e+00	1.292791e+00	1.292544e+00	1.292358e+00	1.291954e+00	1.294299e+00	1.293924e+00	1.294518e+00	1.291791e+00	1.293029e+00	1.293037e+00	1.292719e+00	1.292245e+00	1.292356e+00	1.292685e+00	1.292644e+00	1.291999e+00	1.291921e+00	1.291811e+00	1.291869e+00	1.292312e+00	1.292301e+00	1.292389e+00	1.292417e+00	1.292452e+00	1.292499e+00	1.292377e+00	1.292204e+00	1.292112e+00	1.292726e+00	1.292751e+00	1.292852e+00	1.292762e+00	1.291774e+00	1.291665e+00	1.292757e+00	1.292111e+00	1.292344e+00	1.292388e+00	1.292454e+00	1.292752e+00	1.291241e+00	1.292538e+00	1.291818e+00	1.291776e+00	1.291642e+00	1.292690e+00	1.292636e+00	1.291951e+00	1.291786e+00	1.293151e+00	1.292649e+00	1.290998e+00	1.290089e+00	1.290903e+00	1.292792e+00	1.293018e+00	1.292819e+00	1.293658e+00	1.181776e+00	1.183328e+00	1.147267e+00	1.292477e+00	1.292460e+00	1.292006e+00	1.120779e+00	1.292379e+00	1.292026e+00	1.292437e+00	1.292542e+00	1.291686e+00	1.291596e+00	1.291698e+00	1.290869e+00	1.291466e+00	1.291861e+00	1.292811e+00	1.292692e+00	1.291973e+00	1.291899e+00	1.291813e+00	1.292617e+00	1.292202e+00	1.291776e+00	1.291820e+00	1.292429e+00	1.292263e+00	1.302724e+00	1.295370e+00	1.296373e+00	1.292458e+00	1.292645e+00	1.292984e+00	1.292683e+00	1.292598e+00	1.294934e+00	1.296593e+00	1.291678e+00	1.291701e+00	1.201912e+00	1.189142e+00	1.292148e+00	1.292369e+00	1.296316e+00	1.296576e+00	1.293802e+00	1.290560e+00	1.309421e+00	1.302818e+00	1.306668e+00	1.294091e+00	1.290613e+00	1.296462e+00	1.295131e+00	1.295936e+00	1.289827e+00	1.292876e+00	1.293300e+00	1.294407e+00	1.291004e+00	1.292394e+00	1.293177e+00	1.293762e+00	1.286745e+00	1.295215e+00	1.293438e+00	1.288173e+00	1.292401e+00	1.291841e+00	1.293383e+00	1.287806e+00	1.285690e+00	1.283576e+00	1.293107e+00	1.293974e+00	1.295595e+00	1.357466e+00	1.358660e+00	1.360336e+00	1.289988e+00	1.291345e+00	1.289407e+00	1.293653e+00	1.283596e+00	1.279695e+00	1.287353e+00	1.314482e+00	1.324603e+00	1.247362e+00	1.287912e+00	1.258600e+00	1.293856e+00	1.295685e+00	1.294311e+00	1.287527e+00	1.248121e+00	1.276546e+00	1.280814e+00	1.286985e+00	1.294037e+00	1.297809e+00	1.289442e+00	1.289335e+00	1.294797e+00	1.296352e+00	1.298790e+00	1.298422e+00	1.284891e+00	1.288349e+00	1.294087e+00	1.279574e+00	1.280525e+00	1.289118e+00	1.298990e+00	1.355305e+00	1.291867e+00	1.294527e+00	1.295833e+00	1.294665e+00	1.291022e+00	1.293640e+00	1.296348e+00	1.272822e+00	1.267979e+00	1.297805e+00	1.381261e+00	1.358822e+00	1.364333e+00	1.309899e+00	1.345583e+00	1.288586e+00	1.080427e+00	1.075947e+00	1.285524e+00	1.288487e+00	1.291951e+00	1.298145e+00	1.299924e+00	1.258964e+00	1.251086e+00	1.288402e+00	1.302012e+00	1.279559e+00	1.266287e+00	1.289636e+00	1.209827e+00	1.219415e+00	1.350001e+00	1.353921e+00	1.300516e+00	1.235975e+00	1.300836e+00	1.297155e+00	1.354990e+00	1.381334e+00	1.372600e+00	1.380430e+00	1.300253e+00	1.299879e+00	1.279830e+00	1.257334e+00	1.268243e+00	1.118147e+00	1.305851e+00	1.274431e+00	1.270858e+00	1.295692e+00	1.306627e+00	1.299801e+00	1.296316e+00	1.315948e+00	1.314867e+00	1.347601e+00	1.327793e+00	1.326370e+00	1.312480e+00	1.306811e+00	1.286177e+00	1.287110e+00	1.290276e+00	1.368719e+00	1.282613e+00	1.281721e+00	1.310038e+00	1.305225e+00	1.285361e+00	1.266694e+00	1.268447e+00	1.175388e+00	1.280341e+00	1.284888e+00	1.303114e+00	1.297112e+00	1.275068e+00	1.294787e+00	1.339527e+00	1.320762e+00	1.297515e+00	1.350759e+00	1.335697e+00	1.331047e+00	1.073630e+00	1.101024e+00	1.262881e+00	1.283537e+00	1.301748e+00	1.286550e+00	1.324746e+00	1.352383e+00	1.353543e+00	1.309582e+00	1.323517e+00	1.303599e+00	1.218303e+00	1.200377e+00	1.299572e+00	1.319504e+00	1.287141e+00	1.308409e+00	1.244459e+00	1.214309e+00	1.231771e+00	1.568423e+00	1.536754e+00	1.542863e+00	1.351543e+00	1.285270e+00	1.217283e+00	1.217928e+00	1.201580e+00	1.241393e+00	1.242666e+00	1.240800e+00	1.321658e+00	1.221985e+00	1.112317e+00	1.191407e+00	1.262785e+00	1.292146e+00	1.289615e+00	1.320897e+00	1.306184e+00	1.331458e+00	1.324420e+00	1.376141e+00	1.380320e+00	1.375231e+00	1.326804e+00	1.338438e+00	8.151164e-01	8.864788e-01	8.157452e-01	1.242472e+00	1.230951e+00	1.060931e+00	1.335851e+00	1.347366e+00	1.311649e+00	1.141045e+00	1.320293e+00	1.347922e+00	1.413871e+00	1.221901e+00	1.246072e+00	1.250498e+00	1.246081e+00	1.296187e+00	1.031890e+00	1.272407e+00	1.277096e+00	1.294890e+00	1.320302e+00	1.266093e+00	1.112948e+00	1.074535e+00	1.104520e+00	1.263740e+00	1.405040e+00	1.436987e+00	1.363479e+00	1.387427e+00	1.365804e+00	1.348309e+00	1.367500e+00	1.323942e+00	1.348816e+00	1.300320e+00	1.297505e+00	1.287162e+00	1.336360e+00	1.328510e+00	1.341973e+00	1.340523e+00	1.328844e+00	1.149678e+00	1.195568e+00	1.152679e+00	1.189285e+00	1.217775e+00	1.181430e+00	5.281252e-01	5.182745e-01	9.204778e-01	1.205993e+00	1.269300e+00	1.225698e+00	1.374334e+00	1.288216e+00	1.127289e+00	1.104852e+00	1.076676e+00	1.041101e+00	1.009244e+00	1.171927e+00	1.177145e+00	1.236178e+00	1.200483e+00	1.348563e+00	1.048894e+00	1.359252e+00	1.364773e+00	1.390064e+00	1.403228e+00	1.592822e+00	1.102879e+00	9.638023e-01	9.361116e-01	1.376457e+00	1.366357e+00	1.261853e+00	1.265834e+00	1.261283e+00	1.342716e+00	1.337709e+00	1.308731e+00	1.290059e+00	1.389233e+00	1.330716e+00	1.396325e+00	1.375124e+00	1.394888e+00	1.356118e+00	1.348231e+00	1.274716e+00	1.307980e+00	1.336884e+00	1.340997e+00	1.329275e+00	1.014157e+00	1.363399e+00	1.377399e+00	1.368544e+00	1.248419e+00	1.133420e+00	1.039646e+00	7.341162e-01	1.273881e+00	1.263584e+00	1.260946e+00	1.173491e+00	1.146865e+00	1.150396e+00	1.184497e+00	1.184397e+00	1.168268e+00	1.228291e+00	1.053243e+00	7.867793e-01	7.761355e-01	1.348406e+00	1.353876e+00	1.341403e+00	9.615425e-01	9.370481e-01	1.335880e+00	1.350862e+00	1.377023e+00	1.374006e+00	1.375041e+00	1.158688e+00	1.091318e+00	1.301500e+00	1.284476e+00	1.264737e+00	1.380276e+00	1.370634e+00	1.328465e+00	1.328605e+00	1.335810e+00	5.132395e-01	1.399345e+00	1.416905e+00	1.341781e+00	1.361352e+00	1.094575e+00	8.677869e-01	8.294072e-01	1.008547e+00	9.447937e-01	1.022923e+00	1.140591e+00	1.306099e+00	1.085492e+00	1.030541e+00	1.013556e+00	1.029245e+00	1.102721e+00	1.163620e+00	1.160379e+00	9.701498e-01	1.021006e+00	1.050493e+00	1.311710e+00	1.276705e+00	1.232645e+00	1.281219e+00	1.269163e+00	1.238213e+00	1.227372e+00	1.243809e+00	1.077194e+00	1.280229e+00	1.286379e+00	1.277849e+00	1.280470e+00	1.231898e+00	1.205876e+00	1.210189e+00	1.240242e+00	1.220014e+00	1.366930e+00	6.806180e-01	1.124009e+00	1.194694e+00	1.192948e+00	1.192419e+00	1.364700e+00	1.334680e+00	1.359701e+00	1.349349e+00	1.361072e+00	1.360850e+00	1.204212e+00	1.240348e+00	6.135470e-01	7.717325e-01	7.380406e-01	1.446206e+00	1.472809e+00	1.440152e+00	1.443545e+00	1.415691e+00	1.204611e+00	1.155909e+00	8.051807e-01	8.552607e-01	1.418531e+00	1.278647e+00	1.298052e+00	1.395551e+00	1.295883e+00	1.277295e+00	1.328650e+00	1.369596e+00	1.365788e+00	1.410374e+00	1.378276e+00	1.399180e+00	1.288878e+00	1.354404e+00	1.369288e+00	1.355728e+00	1.338749e+00	1.150340e+00	1.198432e+00	1.153290e+00	1.213733e+00	1.357167e+00	1.317156e+00	1.374755e+00	1.378326e+00	1.158623e+00	1.124901e+00	1.406444e+00	1.232981e+00	1.202742e+00	1.367617e+00	1.369445e+00	1.364910e+00	1.371098e+00	1.179142e+00	1.151689e+00	1.176644e+00	1.170159e+00	1.187510e+00	7.660026e-01	1.345430e+00	1.345261e+00	1.354129e+00	1.177612e+00	1.195670e+00	1.091033e+00	1.244842e+00	1.242159e+00	8.927637e-01	1.199945e+00	1.202742e+00	1.200715e+00	1.098802e+00	9.407682e-01	1.246418e+00	1.189770e+00	1.234834e+00	1.367909e+00	1.364648e+00	1.345040e+00	1.330622e+00	1.313389e+00	7.378519e-01	1.108163e+00	1.067072e+00	9.783439e-01	8.835706e-01	1.453587e+00	1.447772e+00	1.409947e+00	1.269126e+00	1.274893e+00	1.268308e+00	1.274667e+00	8.527549e-01	8.928709e-01	1.349667e+00	1.339218e+00	6.810980e-01	5.273150e-01	5.288619e-01	1.325456e+00	1.347718e+00	1.217792e+00	1.286216e+00	1.323908e+00	1.305225e+00	1.343927e+00	1.344545e+00	8.767747e-01	1.278896e+00	1.383110e+00	1.378927e+00	1.378309e+00	1.262539e+00	1.322202e+00	1.425350e+00	1.388729e+00	1.343409e+00	1.354265e+00	1.032966e+00	9.662643e-01	9.305368e-01	1.185468e+00	1.224390e+00	1.213160e+00	1.254824e+00	1.263022e+00	1.201794e+00	1.222270e+00	1.195591e+00	1.191723e+00	1.084592e+00	1.121888e+00	1.119501e+00	1.041381e+00	1.026223e+00	1.002589e+00	1.326384e+00	1.352126e+00	1.464534e+00	1.489587e+00	1.493916e+00	1.329125e+00	1.354978e+00	1.326898e+00	1.347787e+00	1.292728e+00	1.176900e+00	1.230051e+00	1.234594e+00	1.206744e+00	1.189264e+00	1.158410e+00	1.149016e+00	1.235255e+00	1.205311e+00	8.385511e-01	9.941907e-01	1.006275e+00	1.121410e+00	1.274457e+00	1.274953e+00	1.283185e+00	1.396403e+00	1.291179e+00	1.363814e+00	1.362929e+00	1.368831e+00	1.367451e+00	1.366644e+00	1.006268e+00	1.199248e+00	5.845690e-01	1.191204e+00	1.162426e+00	1.177368e+00	1.144779e+00	6.210265e-01	7.155733e-01	6.313650e-01	5.846881e-01	1.042125e+00	1.116537e+00	9.524238e-01	8.658260e-01	9.073273e-01	1.342408e+00	1.366165e+00	1.354554e+00	1.214122e+00	1.195684e+00	1.245844e+00	1.218954e+00	1.369029e+00	1.369941e+00	1.367054e+00	1.085863e+00	1.200455e+00	7.588667e-01	7.060337e-01	7.360651e-01	1.062830e+00	9.350701e-01	9.758184e-01	1.269406e+00	1.383567e+00	1.380852e+00	1.460277e+00	1.481013e+00	1.475369e+00	1.501704