# vtk DataFile Version 3.0
vtk output
ASCII
DATASET UNSTRUCTURED_GRID
POINTS 198 double
0.000000e+00	0.000000e+00	0.0	3.375202e-03	3.688904e-03	0.0	7.012861e-03	7.357636e-03	0.0	1.148693e-02	1.034504e-02	0.0	1.620840e-02	1.329678e-02	0.0	2.140595e-02	1.582386e-02	0.0	2.682878e-02	1.835291e-02	0.0	3.258750e-02	2.064507e-02	0.0	3.857922e-02	2.292980e-02	0.0	4.487242e-02	2.503290e-02	0.0	5.142781e-02	2.704440e-02	0.0	5.828221e-02	2.885549e-02	0.0	6.543551e-02	3.039862e-02	0.0	7.286804e-02	3.177796e-02	0.0	8.060454e-02	3.276096e-02	0.0	8.858151e-02	3.378523e-02	0.0	9.679084e-02	3.492860e-02	0.0	1.051769e-01	3.649467e-02	0.0	1.137633e-01	3.836170e-02	0.0	1.224600e-01	4.079660e-02	0.0	1.313307e-01	4.356196e-02	0.0	1.404137e-01	4.649406e-02	0.0	1.496909e-01	4.964860e-02	0.0	1.592080e-01	5.288465e-02	0.0	1.690688e-01	5.587228e-02	0.0	1.791853e-01	5.888324e-02	0.0	1.896029e-01	6.171195e-02	0.0	2.004333e-01	6.389957e-02	0.0	2.115009e-01	6.613511e-02	0.0	2.229290e-01	6.753203e-02	0.0	2.346480e-01	6.853968e-02	0.0	2.465999e-01	6.940248e-02	0.0	2.588105e-01	6.927713e-02	0.0	2.712353e-01	6.914958e-02	0.0	2.838375e-01	6.841694e-02	0.0	2.966194e-01	6.729964e-02	0.0	3.095813e-01	6.609230e-02	0.0	3.226431e-01	6.419063e-02	0.0	3.358725e-01	6.226457e-02	0.0	3.492259e-01	6.011086e-02	0.0	3.626995e-01	5.777972e-02	0.0	3.763063e-01	5.542870e-02	0.0	3.900442e-01	5.312115e-02	0.0	4.038893e-01	5.079560e-02	0.0	4.178664e-01	4.870815e-02	0.0	4.319577e-01	4.683385e-02	0.0	4.461178e-01	4.497325e-02	0.0	4.603987e-01	4.373223e-02	0.0	4.747169e-01	4.248797e-02	0.0	4.890790e-01	4.156224e-02	0.0	5.034657e-01	4.089369e-02	0.0	5.178461e-01	4.026569e-02	0.0	5.322173e-01	4.009707e-02	0.0	5.465510e-01	3.992888e-02	0.0	5.608313e-01	4.002746e-02	0.0	5.750442e-01	4.029800e-02	0.0	5.891740e-01	4.062148e-02	0.0	6.031956e-01	4.132080e-02	0.0	6.171086e-01	4.201470e-02	0.0	6.308815e-01	4.298078e-02	0.0	6.445097e-01	4.409766e-02	0.0	6.579866e-01	4.525409e-02	0.0	6.712706e-01	4.675739e-02	0.0	6.843865e-01	4.824166e-02	0.0	6.973229e-01	4.971355e-02	0.0	7.100707e-01	5.116930e-02	0.0	7.226257e-01	5.255280e-02	0.0	7.350276e-01	5.331876e-02	0.0	7.472156e-01	5.407152e-02	0.0	7.591842e-01	5.393039e-02	0.0	7.709267e-01	5.324827e-02	0.0	7.823737e-01	5.212673e-02	0.0	7.934001e-01	4.969564e-02	0.0	8.041900e-01	4.731668e-02	0.0	8.144584e-01	4.396778e-02	0.0	8.244760e-01	4.064263e-02	0.0	8.342081e-01	3.725843e-02	0.0	8.436751e-01	3.387895e-02	0.0	8.529492e-01	3.072428e-02	0.0	8.621039e-01	2.802156e-02	0.0	8.710154e-01	2.539062e-02	0.0	8.798008e-01	2.327543e-02	0.0	8.883644e-01	2.130622e-02	0.0	8.967059e-01	1.949689e-02	0.0	9.048477e-01	1.794375e-02	0.0	9.127479e-01	1.643669e-02	0.0	9.204231e-01	1.505023e-02	0.0	9.278652e-01	1.372301e-02	0.0	9.350723e-01	1.242739e-02	0.0	9.420468e-01	1.115503e-02	0.0	9.487958e-01	9.923503e-03	0.0	9.553180e-01	8.703525e-03	0.0	9.616231e-01	7.524147e-03	0.0	9.677119e-01	6.364733e-03	0.0	9.735919e-01	5.241365e-03	0.0	9.792654e-01	4.140339e-03	0.0	9.847391e-01	3.071407e-03	0.0	9.900168e-01	2.028602e-03	0.0	9.951027e-01	1.007514e-03	0.0	1.000000e+00	0.000000e+00	0.0	9.950043e-01	2.070715e-04	0.0	9.898198e-01	4.036934e-04	0.0	9.844402e-01	5.518056e-04	0.0	9.788612e-01	6.561398e-04	0.0	9.730785e-01	7.364375e-04	0.0	9.670869e-01	7.592840e-04	0.0	9.608825e-01	7.590596e-04	0.0	9.544605e-01	6.931982e-04	0.0	9.478166e-01	6.106848e-04	0.0	9.409479e-01	4.316949e-04	0.0	9.338484e-01	2.466938e-04	0.0	9.265178e-01	-4.535448e-05	0.0	9.189498e-01	-3.691310e-04	0.0	9.111418e-01	-7.393875e-04	0.0	9.030920e-01	-1.180126e-03	0.0	8.947947e-01	-1.634413e-03	0.0	8.862495e-01	-2.136686e-03	0.0	8.774527e-01	-2.657743e-03	0.0	8.684020e-01	-3.187645e-03	0.0	8.590962e-01	-3.724690e-03	0.0	8.495351e-01	-4.276507e-03	0.0	8.397185e-01	-4.843436e-03	0.0	8.296468e-01	-5.425099e-03	0.0	8.193323e-01	-6.191769e-03	0.0	8.087677e-01	-7.008711e-03	0.0	7.979771e-01	-8.097030e-03	0.0	7.869546e-01	-9.364196e-03	0.0	7.757144e-01	-1.084112e-02	0.0	7.642850e-01	-1.270379e-02	0.0	7.526232e-01	-1.460435e-02	0.0	7.408285e-01	-1.704641e-02	0.0	7.288215e-01	-1.957011e-02	0.0	7.166525e-01	-2.235364e-02	0.0	7.043517e-01	-2.549288e-02	0.0	6.918565e-01	-2.868172e-02	0.0	6.792974e-01	-3.235547e-02	0.0	6.665900e-01	-3.617457e-02	0.0	6.537433e-01	-4.012030e-02	0.0	6.408413e-01	-4.442172e-02	0.0	6.277984e-01	-4.877008e-02	0.0	6.146219e-01	-5.314784e-02	0.0	6.013249e-01	-5.755424e-02	0.0	5.879234e-01	-6.199526e-02	0.0	5.742921e-01	-6.602397e-02	0.0	5.605765e-01	-7.005821e-02	0.0	5.467068e-01	-7.376948e-02	0.0	5.326468e-01	-7.695929e-02	0.0	5.185498e-01	-8.015750e-02	0.0	5.042645e-01	-8.248708e-02	0.0	4.899464e-01	-8.468506e-02	0.0	4.755900e-01	-8.649021e-02	0.0	4.611821e-01	-8.766056e-02	0.0	4.468121e-01	-8.882783e-02	0.0	4.324522e-01	-8.904263e-02	0.0	4.181561e-01	-8.917090e-02	0.0	4.039547e-01	-8.883448e-02	0.0	3.898643e-01	-8.795011e-02	0.0	3.758837e-01	-8.707264e-02	0.0	3.621194e-01	-8.525158e-02	0.0	3.484914e-01	-8.343444e-02	0.0	3.350859e-01	-8.118957e-02	0.0	3.219164e-01	-7.850655e-02	0.0	3.089146e-01	-7.585771e-02	0.0	2.962544e-01	-7.254644e-02	0.0	2.837874e-01	-6.924922e-02	0.0	2.715318e-01	-6.593899e-02	0.0	2.595076e-01	-6.257419e-02	0.0	2.476922e-01	-5.926779e-02	0.0	2.360008e-01	-5.637509e-02	0.0	2.245041e-01	-5.364819e-02	0.0	2.132024e-01	-5.116055e-02	0.0	2.019631e-01	-4.965494e-02	0.0	1.909662e-01	-4.818180e-02	0.0	1.801618e-01	-4.736179e-02	0.0	1.695735e-01	-4.695427e-02	0.0	1.592375e-01	-4.658028e-02	0.0	1.491492e-01	-4.650204e-02	0.0	1.393166e-01	-4.642578e-02	0.0	1.297482e-01	-4.609181e-02	0.0	1.204419e-01	-4.556326e-02	0.0	1.113971e-01	-4.498839e-02	0.0	1.027017e-01	-4.355750e-02	0.0	9.425540e-02	-4.216758e-02	0.0	8.614569e-02	-4.039155e-02	0.0	7.833704e-02	-3.838682e-02	0.0	7.078836e-02	-3.636405e-02	0.0	6.356842e-02	-3.407210e-02	0.0	5.657573e-02	-3.185229e-02	0.0	4.985003e-02	-2.957213e-02	0.0	4.334716e-02	-2.735300e-02	0.0	3.711774e-02	-2.504256e-02	0.0	3.110870e-02	-2.277650e-02	0.0	2.547592e-02	-2.017481e-02	0.0	2.014260e-02	-1.746440e-02	0.0	1.521424e-02	-1.443810e-02	0.0	1.072926e-02	-1.113415e-02	0.0	6.565669e-03	-7.729057e-03	0.0	2.921027e-03	-4.036501e-03	0.0	
CELLS 198	594
2	102	103	2	103	104	2	104	105	2	105	106	2	106	107	2	107	108	2	108	109	2	109	110	2	110	111	2	111	112	2	112	113	2	113	114	2	114	115	2	115	116	2	116	117	2	117	118	2	118	119	2	119	120	2	120	121	2	121	122	2	122	123	2	123	124	2	124	125	2	125	126	2	126	127	2	127	128	2	128	129	2	129	130	2	130	131	2	131	132	2	132	133	2	133	134	2	134	135	2	135	136	2	136	137	2	137	138	2	138	139	2	139	140	2	140	141	2	141	142	2	142	143	2	143	144	2	144	145	2	145	146	2	146	147	2	147	148	2	148	149	2	149	150	2	150	151	2	151	152	2	152	153	2	153	154	2	154	155	2	155	156	2	156	157	2	157	158	2	158	159	2	159	160	2	160	161	2	161	162	2	162	163	2	163	164	2	164	165	2	165	166	2	166	167	2	167	168	2	168	169	2	169	170	2	170	171	2	171	172	2	172	173	2	173	174	2	174	175	2	175	176	2	0	1	2	1	2	2	2	3	2	3	4	2	4	5	2	5	6	2	6	7	2	7	8	2	8	9	2	9	10	2	10	11	2	11	12	2	12	13	2	13	14	2	14	15	2	15	16	2	16	17	2	17	18	2	18	19	2	19	20	2	20	21	2	21	22	2	22	23	2	23	24	2	24	25	2	25	26	2	26	27	2	27	28	2	28	29	2	29	30	2	30	31	2	31	32	2	32	33	2	33	34	2	34	35	2	35	36	2	36	37	2	37	38	2	176	177	2	177	178	2	178	179	2	179	180	2	180	181	2	181	182	2	182	183	2	183	184	2	184	185	2	185	186	2	186	187	2	187	188	2	188	189	2	189	190	2	190	191	2	191	192	2	192	193	2	193	194	2	194	195	2	195	196	2	196	197	2	197	0	2	38	39	2	39	40	2	40	41	2	41	42	2	42	43	2	43	44	2	44	45	2	45	46	2	46	47	2	47	48	2	48	49	2	49	50	2	50	51	2	51	52	2	52	53	2	53	54	2	54	55	2	55	56	2	56	57	2	57	58	2	58	59	2	59	60	2	60	61	2	61	62	2	62	63	2	63	64	2	64	65	2	65	66	2	66	67	2	67	68	2	68	69	2	69	70	2	70	71	2	71	72	2	72	73	2	73	74	2	74	75	2	75	76	2	76	77	2	77	78	2	78	79	2	79	80	2	80	81	2	81	82	2	82	83	2	83	84	2	84	85	2	85	86	2	86	87	2	87	88	2	88	89	2	89	90	2	90	91	2	91	92	2	92	93	2	93	94	2	94	95	2	95	96	2	96	97	2	97	98	2	98	99	2	99	100	2	100	101	2	101	102	
CELL_TYPES 198
3	3	3	3	3	3	3	3	3	3	3	3	3	3	3	3	3	3	3	3	3	3	3	3	3	3	3	3	3	3	3	3	3	3	3	3	3	3	3	3	3	3	3	3	3	3	3	3	3	3	3	3	3	3	3	3	3	3	3	3	3	3	3	3	3	3	3	3	3	3	3	3	3	3	3	3	3	3	3	3	3	3	3	3	3	3	3	3	3	3	3	3	3	3	3	3	3	3	3	3	3	3	3	3	3	3	3	3	3	3	3	3	3	3	3	3	3	3	3	3	3	3	3	3	3	3	3	3	3	3	3	3	3	3	3	3	3	3	3	3	3	3	3	3	3	3	3	3	3	3	3	3	3	3	3	3	3	3	3	3	3	3	3	3	3	3	3	3	3	3	3	3	3	3	3	3	3	3	3	3	3	3	3	3	3	3	3	3	3	3	3	3	3	3	3	3	3	3	
POINT_DATA 198

SCALARS Density double 1
LOOKUP_TABLE default
1.568170e+00	1.193264e+00	1.215007e+00	1.159203e+00	1.136200e+00	1.117442e+00	1.108181e+00	1.092539e+00	1.075120e+00	1.054091e+00	1.040542e+00	1.034901e+00	1.057484e+00	1.110853e+00	1.178447e+00	1.244295e+00	1.281853e+00	1.299556e+00	1.304837e+00	1.296596e+00	1.265057e+00	1.234610e+00	1.201112e+00	1.145337e+00	1.097822e+00	1.056745e+00	9.791966e-01	9.234246e-01	8.640580e-01	7.890644e-01	7.586746e-01	7.019718e-01	6.549425e-01	6.295436e-01	5.899804e-01	5.734020e-01	5.482548e-01	5.240071e-01	5.204317e-01	5.107561e-01	5.063239e-01	5.198981e-01	6.074213e-01	9.181126e-01	1.138160e+00	1.162546e+00	1.181242e+00	1.184130e+00	1.189468e+00	1.196914e+00	1.196744e+00	1.200383e+00	1.200383e+00	1.196780e+00	1.197868e+00	1.193295e+00	1.192634e+00	1.187974e+00	1.181340e+00	1.177352e+00	1.165640e+00	1.157548e+00	1.142529e+00	1.118428e+00	1.095774e+00	1.067623e+00	1.020539e+00	9.842701e-01	9.379162e-01	8.864191e-01	8.765715e-01	8.715560e-01	9.311286e-01	1.011786e+00	1.062823e+00	1.121779e+00	1.152075e+00	1.180338e+00	1.205010e+00	1.214740e+00	1.224234e+00	1.231410e+00	1.229937e+00	1.235541e+00	1.235957e+00	1.235497e+00	1.237801e+00	1.237877e+00	1.239388e+00	1.242130e+00	1.244475e+00	1.247449e+00	1.250988e+00	1.254356e+00	1.258467e+00	1.262470e+00	1.267067e+00	1.275923e+00	1.276056e+00	1.266517e+00	1.366862e+00	1.346050e+00	1.352425e+00	1.352356e+00	1.354724e+00	1.355890e+00	1.356963e+00	1.358673e+00	1.359080e+00	1.359845e+00	1.360754e+00	1.359173e+00	1.359899e+00	1.358701e+00	1.358025e+00	1.357891e+00	1.357099e+00	1.357327e+00	1.358311e+00	1.360106e+00	1.362137e+00	1.367938e+00	1.371285e+00	1.375873e+00	1.379844e+00	1.380400e+00	1.384558e+00	1.381447e+00	1.383041e+00	1.381481e+00	1.374258e+00	1.374310e+00	1.365679e+00	1.362456e+00	1.356902e+00	1.343517e+00	1.336248e+00	1.322656e+00	1.303768e+00	1.286914e+00	1.269424e+00	1.239090e+00	1.225696e+00	1.225333e+00	1.066224e+00	7.620254e-01	6.531766e-01	6.663784e-01	7.013325e-01	7.192926e-01	7.552494e-01	7.768726e-01	8.159527e-01	8.566741e-01	8.774275e-01	9.179030e-01	9.384133e-01	9.833286e-01	1.034446e+00	1.062735e+00	1.109673e+00	1.134436e+00	1.174814e+00	1.230197e+00	1.264492e+00	1.297926e+00	1.338243e+00	1.363862e+00	1.380519e+00	1.412706e+00	1.418573e+00	1.417636e+00	1.424475e+00	1.405815e+00	1.392740e+00	1.377141e+00	1.341772e+00	1.312673e+00	1.294022e+00	1.246031e+00	1.236331e+00	1.252178e+00	1.255341e+00	1.286755e+00	1.304575e+00	1.331319e+00	1.360962e+00	1.381582e+00	1.400286e+00	1.417978e+00	1.427454e+00	1.444510e+00	1.470915e+00	1.501327e+00	1.540837e+00	1.589203e+00	1.598502e+00	1.691933e+00	
VECTORS Momentum double
2.558663e+01	1.911597e+02	0.0	1.715652e+02	1.719244e+02	0.0	2.008755e+02	1.658312e+02	0.0	2.295258e+02	1.475271e+02	0.0	2.483923e+02	1.367383e+02	0.0	2.637236e+02	1.252770e+02	0.0	2.726425e+02	1.173246e+02	0.0	2.815953e+02	1.094452e+02	0.0	2.877346e+02	1.027288e+02	0.0	2.936022e+02	9.401151e+01	0.0	2.992381e+02	8.523963e+01	0.0	3.032466e+02	7.276259e+01	0.0	3.030450e+02	6.069142e+01	0.0	3.026136e+02	4.736520e+01	0.0	2.927404e+02	3.727728e+01	0.0	2.825606e+02	3.780913e+01	0.0	2.731157e+02	4.464257e+01	0.0	2.672206e+02	5.399249e+01	0.0	2.654853e+02	6.601349e+01	0.0	2.684093e+02	7.966643e+01	0.0	2.736933e+02	8.681010e+01	0.0	2.794741e+02	9.254658e+01	0.0	2.883528e+02	9.840188e+01	0.0	2.962985e+02	9.545299e+01	0.0	3.019894e+02	9.063528e+01	0.0	3.094799e+02	8.877959e+01	0.0	3.105160e+02	7.377639e+01	0.0	3.109934e+02	6.288974e+01	0.0	3.102622e+02	5.096296e+01	0.0	3.011965e+02	3.128712e+01	0.0	2.984577e+02	2.365381e+01	0.0	2.886269e+02	9.648724e+00	0.0	2.781358e+02	-2.631542e+00	0.0	2.735567e+02	-9.179391e+00	0.0	2.618706e+02	-1.895977e+01	0.0	2.577005e+02	-2.338848e+01	0.0	2.505146e+02	-2.963959e+01	0.0	2.419692e+02	-3.549361e+01	0.0	2.415597e+02	-3.753186e+01	0.0	2.374117e+02	-3.986531e+01	0.0	2.371459e+02	-4.071132e+01	0.0	2.378790e+02	-4.133599e+01	0.0	2.407485e+02	-3.991203e+01	0.0	2.355378e+02	-3.546255e+01	0.0	2.255901e+02	-3.152016e+01	0.0	2.201769e+02	-2.861339e+01	0.0	2.174006e+02	-2.288770e+01	0.0	2.148143e+02	-1.904783e+01	0.0	2.153899e+02	-1.645726e+01	0.0	2.150359e+02	-1.194366e+01	0.0	2.145112e+02	-9.758774e+00	0.0	2.144657e+02	-5.958628e+00	0.0	2.154491e+02	-2.467215e+00	0.0	2.158297e+02	-6.302825e-01	0.0	2.170000e+02	2.784694e+00	0.0	2.175944e+02	4.529024e+00	0.0	2.186164e+02	7.909731e+00	0.0	2.207862e+02	1.098886e+01	0.0	2.226138e+02	1.331304e+01	0.0	2.257328e+02	1.725422e+01	0.0	2.284690e+02	1.913356e+01	0.0	2.319790e+02	2.309277e+01	0.0	2.376410e+02	2.705189e+01	0.0	2.433812e+02	2.768569e+01	0.0	2.495742e+02	2.842611e+01	0.0	2.583167e+02	2.896827e+01	0.0	2.649717e+02	2.275144e+01	0.0	2.710529e+02	1.660699e+01	0.0	2.776867e+02	7.061282e+00	0.0	2.759200e+02	-9.628879e+00	0.0	2.780159e+02	-2.154793e+01	0.0	2.702118e+02	-4.274516e+01	0.0	2.617301e+02	-5.795077e+01	0.0	2.525810e+02	-6.815695e+01	0.0	2.351361e+02	-7.721305e+01	0.0	2.233059e+02	-7.556252e+01	0.0	2.120194e+02	-7.454675e+01	0.0	2.008909e+02	-7.010625e+01	0.0	1.941933e+02	-6.169161e+01	0.0	1.892889e+02	-5.589007e+01	0.0	1.858097e+02	-4.986244e+01	0.0	1.852129e+02	-4.360126e+01	0.0	1.839284e+02	-4.123313e+01	0.0	1.833220e+02	-3.742378e+01	0.0	1.836572e+02	-3.502056e+01	0.0	1.830498e+02	-3.401717e+01	0.0	1.827976e+02	-3.278345e+01	0.0	1.821848e+02	-3.262218e+01	0.0	1.808721e+02	-3.276835e+01	0.0	1.793445e+02	-3.270180e+01	0.0	1.774898e+02	-3.279528e+01	0.0	1.754579e+02	-3.284217e+01	0.0	1.732903e+02	-3.270012e+01	0.0	1.707617e+02	-3.256464e+01	0.0	1.679799e+02	-3.227843e+01	0.0	1.645320e+02	-3.200071e+01	0.0	1.603646e+02	-3.143761e+01	0.0	1.561427e+02	-3.081265e+01	0.0	1.452771e+02	-3.054941e+01	0.0	1.520930e+02	1.437644e+00	0.0	2.346561e+02	-1.126799e+01	0.0	2.271702e+02	-7.097823e+00	0.0	2.285949e+02	-5.463022e+00	0.0	2.266435e+02	-3.620325e+00	0.0	2.260692e+02	-2.017892e+00	0.0	2.251489e+02	-3.959036e-01	0.0	2.245574e+02	1.192909e+00	0.0	2.239459e+02	2.545470e+00	0.0	2.232690e+02	4.331703e+00	0.0	2.229595e+02	5.783674e+00	0.0	2.227510e+02	7.325886e+00	0.0	2.228890e+02	9.233325e+00	0.0	2.232967e+02	1.004624e+01	0.0	2.234437e+02	1.142665e+01	0.0	2.240385e+02	1.226155e+01	0.0	2.242765e+02	1.272187e+01	0.0	2.243626e+02	1.324745e+01	0.0	2.243155e+02	1.321043e+01	0.0	2.236987e+02	1.300661e+01	0.0	2.225838e+02	1.285822e+01	0.0	2.210478e+02	1.280646e+01	0.0	2.186766e+02	1.257935e+01	0.0	2.158794e+02	1.428641e+01	0.0	2.138567e+02	1.620892e+01	0.0	2.113509e+02	1.887850e+01	0.0	2.095632e+02	2.268038e+01	0.0	2.084300e+02	2.561535e+01	0.0	2.075858e+02	3.062444e+01	0.0	2.081626e+02	3.381019e+01	0.0	2.081353e+02	3.843784e+01	0.0	2.097807e+02	4.386009e+01	0.0	2.121745e+02	4.647447e+01	0.0	2.133488e+02	5.167681e+01	0.0	2.169283e+02	5.530344e+01	0.0	2.188693e+02	5.988275e+01	0.0	2.225102e+02	6.591495e+01	0.0	2.276833e+02	6.905010e+01	0.0	2.316168e+02	7.419276e+01	0.0	2.377267e+02	7.931438e+01	0.0	2.450929e+02	8.150111e+01	0.0	2.516660e+02	8.339487e+01	0.0	2.587471e+02	8.587850e+01	0.0	2.678715e+02	8.376520e+01	0.0	2.702882e+02	7.778714e+01	0.0	2.769407e+02	7.752077e+01	0.0	2.753604e+02	6.930176e+01	0.0	2.693329e+02	6.084271e+01	0.0	2.829070e+02	5.432457e+01	0.0	2.910202e+02	4.598937e+01	0.0	2.949840e+02	4.100170e+01	0.0	3.044393e+02	3.127145e+01	0.0	3.074026e+02	2.489045e+01	0.0	3.149842e+02	1.444831e+01	0.0	3.213345e+02	3.641813e+00	0.0	3.228653e+02	-2.562857e+00	0.0	3.284958e+02	-1.452714e+01	0.0	3.277104e+02	-2.076465e+01	0.0	3.308730e+02	-3.313495e+01	0.0	3.317876e+02	-4.459018e+01	0.0	3.289648e+02	-4.976526e+01	0.0	3.285705e+02	-6.138504e+01	0.0	3.234530e+02	-6.575298e+01	0.0	3.198702e+02	-7.413332e+01	0.0	3.125962e+02	-8.212049e+01	0.0	3.036966e+02	-8.111059e+01	0.0	2.966377e+02	-8.154757e+01	0.0	2.883080e+02	-8.093850e+01	0.0	2.807197e+02	-7.403846e+01	0.0	2.759734e+02	-6.691949e+01	0.0	2.700389e+02	-6.216192e+01	0.0	2.655342e+02	-4.697258e+01	0.0	2.676231e+02	-3.581811e+01	0.0	2.697072e+02	-2.842417e+01	0.0	2.724866e+02	-1.540762e+01	0.0	2.800377e+02	-1.051964e+01	0.0	2.861308e+02	-6.513467e+00	0.0	2.936400e+02	-2.273363e+00	0.0	3.032808e+02	-6.576526e+00	0.0	3.093133e+02	-1.450232e+01	0.0	3.125111e+02	-1.841031e+01	0.0	3.183198e+02	-3.609645e+01	0.0	3.149207e+02	-5.178358e+01	0.0	3.088430e+02	-5.900701e+01	0.0	3.040957e+02	-7.249190e+01	0.0	2.951998e+02	-7.738264e+01	0.0	2.873350e+02	-8.403918e+01	0.0	2.776586e+02	-8.832263e+01	0.0	2.687619e+02	-8.812550e+01	0.0	2.613167e+02	-8.888922e+01	0.0	2.531234e+02	-9.004652e+01	0.0	2.448509e+02	-9.146422e+01	0.0	2.343472e+02	-9.798830e+01	0.0	2.168598e+02	-1.048888e+02	0.0	1.918383e+02	-1.072238e+02	0.0	1.564866e+02	-1.049468e+02	0.0	1.147410e+02	-8.834792e+01	0.0	6.892106e+01	-5.786220e+01	0.0	-1.332721e+01	1.332477e+01	0.0	
SCALARS Energy double 1
LOOKUP_TABLE default
3.434638e+05	2.658352e+05	2.714656e+05	2.605607e+05	2.565062e+05	2.532278e+05	2.516785e+05	2.488640e+05	2.455550e+05	2.414721e+05	2.389443e+05	2.378545e+05	2.422313e+05	2.529660e+05	2.661165e+05	2.791699e+05	2.865194e+05	2.899934e+05	2.911623e+05	2.898183e+05	2.836518e+05	2.777677e+05	2.715156e+05	2.604659e+05	2.510114e+05	2.431803e+05	2.272108e+05	2.158293e+05	2.037255e+05	1.877191e+05	1.814055e+05	1.692028e+05	1.589069e+05	1.535240e+05	1.446359e+05	1.410302e+05	1.354767e+05	1.299422e+05	1.292653e+05	1.269727e+05	1.261370e+05	1.287640e+05	1.457321e+05	2.079310e+05	2.533352e+05	2.581690e+05	2.619449e+05	2.624027e+05	2.635540e+05	2.651003e+05	2.650316e+05	2.657948e+05	2.658414e+05	2.650957e+05	2.653879e+05	2.644502e+05	2.643685e+05	2.635020e+05	2.622011e+05	2.615410e+05	2.592241e+05	2.577345e+05	2.549229e+05	2.502076e+05	2.458567e+05	2.405671e+05	2.312160e+05	2.241535e+05	2.151501e+05	2.045144e+05	2.027667e+05	2.012740e+05	2.129509e+05	2.290807e+05	2.387179e+05	2.503477e+05	2.561035e+05	2.614489e+05	2.662419e+05	2.680111e+05	2.698079e+05	2.712454e+05	2.708525e+05	2.719886e+05	2.720715e+05	2.719395e+05	2.724115e+05	2.724009e+05	2.726698e+05	2.731920e+05	2.736182e+05	2.741724e+05	2.748422e+05	2.754629e+05	2.762341e+05	2.769598e+05	2.777885e+05	2.795342e+05	2.791944e+05	2.772679e+05	3.021875e+05	2.973883e+05	2.988114e+05	2.987012e+05	2.991769e+05	2.993808e+05	2.995816e+05	2.999174e+05	2.999736e+05	3.001235e+05	3.003094e+05	2.999825e+05	3.001578e+05	2.999128e+05	2.997989e+05	2.997828e+05	2.996197e+05	2.996659e+05	2.998458e+05	3.001754e+05	3.005364e+05	3.016631e+05	3.022548e+05	3.031495e+05	3.038963e+05	3.039535e+05	3.048071e+05	3.041354e+05	3.045219e+05	3.042221e+05	3.027979e+05	3.029385e+05	3.012036e+05	3.007188e+05	2.996804e+05	2.970833e+05	2.958323e+05	2.932215e+05	2.896184e+05	2.864875e+05	2.831991e+05	2.772797e+05	2.749870e+05	2.749499e+05	2.423038e+05	1.803688e+05	1.583237e+05	1.623024e+05	1.697740e+05	1.736025e+05	1.815005e+05	1.859642e+05	1.943556e+05	2.030003e+05	2.072531e+05	2.158848e+05	2.199200e+05	2.293101e+05	2.398083e+05	2.453459e+05	2.550286e+05	2.597344e+05	2.678815e+05	2.789126e+05	2.853825e+05	2.918868e+05	2.997855e+05	3.045973e+05	3.077258e+05	3.141259e+05	3.149563e+05	3.147771e+05	3.162896e+05	3.124359e+05	3.100865e+05	3.071458e+05	3.001591e+05	2.946826e+05	2.912086e+05	2.814518e+05	2.799711e+05	2.831694e+05	2.834856e+05	2.898972e+05	2.931099e+05	2.983286e+05	3.040512e+05	3.078835e+05	3.114404e+05	3.147764e+05	3.163965e+05	3.196390e+05	3.246204e+05	3.301754e+05	3.374393e+05	3.465215e+05	3.473769e+05	3.669447e+05	
SCALARS Pressure double 1
LOOKUP_TABLE default
1.326416e+05	9.644647e+04	9.741744e+04	9.137988e+04	8.845074e+04	8.603407e+04	8.477167e+04	8.283696e+04	8.085754e+04	7.855616e+04	7.697027e+04	7.634718e+04	7.882704e+04	8.429517e+04	9.166673e+04	9.860514e+04	1.026586e+05	1.045593e+05	1.049937e+05	1.038356e+05	1.004267e+05	9.706692e+04	9.314885e+04	8.726485e+04	8.229371e+04	7.765344e+04	7.007887e+04	6.452766e+04	5.860749e+04	5.184538e+04	4.893245e+04	4.391989e+04	3.993735e+04	3.760902e+04	3.448555e+04	3.305794e+04	3.097661e+04	2.914936e+04	2.874070e+04	2.809582e+04	2.758582e+04	2.908003e+04	3.868445e+04	7.081322e+04	9.221683e+04	9.478679e+04	9.668700e+04	9.710586e+04	9.757545e+04	9.828968e+04	9.830670e+04	9.864852e+04	9.860164e+04	9.825359e+04	9.829171e+04	9.784108e+04	9.772218e+04	9.717379e+04	9.646050e+04	9.590991e+04	9.467071e+04	9.370370e+04	9.195538e+04	8.935355e+04	8.682655e+04	8.356946e+04	7.862556e+04	7.467658e+04	6.960660e+04	6.460747e+04	6.336546e+04	6.333537e+04	6.974511e+04	7.810321e+04	8.396111e+04	9.023068e+04	9.367298e+04	9.690852e+04	9.960606e+04	1.007909e+05	1.018767e+05	1.026179e+05	1.025635e+05	1.031287e+05	1.031720e+05	1.031644e+05	1.033919e+05	1.034258e+05	1.036155e+05	1.039257e+05	1.042116e+05	1.045603e+05	1.049650e+05	1.053668e+05	1.058437e+05	1.063332e+05	1.069001e+05	1.078432e+05	1.082236e+05	1.072539e+05	1.127995e+05	1.112800e+05	1.117925e+05	1.118818e+05	1.121251e+05	1.122750e+05	1.124002e+05	1.125836e+05	1.126510e+05	1.127332e+05	1.128232e+05	1.126702e+05	1.127152e+05	1.125967e+05	1.125053e+05	1.124807e+05	1.124034e+05	1.124265e+05	1.125453e+05	1.127606e+05	1.130162e+05	1.136507e+05	1.140750e+05	1.145735e+05	1.150323e+05	1.151440e+05	1.155527e+05	1.152797e+05	1.153773e+05	1.152034e+05	1.144346e+05	1.143097e+05	1.134244e+05	1.129307e+05	1.122829e+05	1.108162e+05	1.098603e+05	1.083443e+05	1.062130e+05	1.042271e+05	1.022053e+05	9.891514e+04	9.714139e+04	9.706813e+04	8.140779e+04	5.098651e+04	3.998447e+04	4.001392e+04	4.315452e+04	4.477881e+04	4.779750e+04	4.989879e+04	5.337227e+04	5.709082e+04	5.913891e+04	6.279578e+04	6.498766e+04	6.923412e+04	7.425546e+04	7.730637e+04	8.187458e+04	8.468680e+04	8.879859e+04	9.458236e+04	9.852450e+04	1.021709e+05	1.065127e+05	1.094791e+05	1.114078e+05	1.147797e+05	1.157307e+05	1.156254e+05	1.161892e+05	1.143775e+05	1.127573e+05	1.109622e+05	1.072105e+05	1.038524e+05	1.016637e+05	9.685044e+04	9.538604e+04	9.699905e+04	9.764302e+04	1.007688e+05	1.029664e+05	1.058675e+05	1.091447e+05	1.115726e+05	1.136944e+05	1.157299e+05	1.169866e+05	1.189224e+05	1.219579e+05	1.256360e+05	1.303676e+05	1.359694e+05	1.379375e+05	1.467359e+05	
SCALARS Temperature double 1
LOOKUP_TABLE default
2.946571e+02	2.815660e+02	2.793112e+02	2.746133e+02	2.711920e+02	2.682104e+02	2.664834e+02	2.641300e+02	2.619956e+02	2.596165e+02	2.576877e+02	2.569950e+02	2.596759e+02	2.643483e+02	2.709767e+02	2.760620e+02	2.789892e+02	2.802838e+02	2.803092e+02	2.789793e+02	2.765473e+02	2.738873e+02	2.701621e+02	2.654218e+02	2.611350e+02	2.559888e+02	2.493145e+02	2.434304e+02	2.362874e+02	2.288906e+02	2.246838e+02	2.179575e+02	2.124254e+02	2.081117e+02	2.036244e+02	2.008385e+02	1.968257e+02	1.937859e+02	1.923818e+02	1.916278e+02	1.897963e+02	1.948529e+02	2.218589e+02	2.686883e+02	2.822520e+02	2.840324e+02	2.851409e+02	2.856778e+02	2.857709e+02	2.860719e+02	2.861621e+02	2.862865e+02	2.861507e+02	2.859989e+02	2.858501e+02	2.856299e+02	2.854409e+02	2.849525e+02	2.844493e+02	2.837837e+02	2.829318e+02	2.819993e+02	2.803757e+02	2.783134e+02	2.760336e+02	2.726841e+02	2.683888e+02	2.643020e+02	2.585335e+02	2.539066e+02	2.518231e+02	2.531520e+02	2.609363e+02	2.689123e+02	2.751995e+02	2.802060e+02	2.832461e+02	2.860131e+02	2.879555e+02	2.890469e+02	2.898949e+02	2.903024e+02	2.904960e+02	2.907721e+02	2.907964e+02	2.908831e+02	2.909819e+02	2.910594e+02	2.912378e+02	2.914649e+02	2.917160e+02	2.919942e+02	2.922952e+02	2.926261e+02	2.929904e+02	2.934122e+02	2.939065e+02	2.944414e+02	2.954489e+02	2.950071e+02	2.874835e+02	2.879961e+02	2.879584e+02	2.882033e+02	2.883250e+02	2.884623e+02	2.885556e+02	2.886624e+02	2.887488e+02	2.887971e+02	2.888345e+02	2.887784e+02	2.887395e+02	2.886901e+02	2.885995e+02	2.885649e+02	2.885349e+02	2.885455e+02	2.886412e+02	2.888118e+02	2.890348e+02	2.894249e+02	2.897967e+02	2.900922e+02	2.904158e+02	2.905805e+02	2.907363e+02	2.907027e+02	2.906134e+02	2.905030e+02	2.900811e+02	2.897537e+02	2.893265e+02	2.887486e+02	2.882672e+02	2.873363e+02	2.864072e+02	2.853578e+02	2.837970e+02	2.821378e+02	2.804768e+02	2.780931e+02	2.760908e+02	2.759643e+02	2.659794e+02	2.330860e+02	2.132510e+02	2.091802e+02	2.143545e+02	2.168689e+02	2.204678e+02	2.237539e+02	2.278668e+02	2.321566e+02	2.347969e+02	2.383219e+02	2.412499e+02	2.452742e+02	2.500638e+02	2.534083e+02	2.570303e+02	2.600556e+02	2.633101e+02	2.678340e+02	2.714304e+02	2.742253e+02	2.772660e+02	2.796347e+02	2.811276e+02	2.830373e+02	2.842020e+02	2.841311e+02	2.841459e+02	2.834280e+02	2.820363e+02	2.806899e+02	2.783486e+02	2.756071e+02	2.736875e+02	2.707715e+02	2.687697e+02	2.698558e+02	2.709629e+02	2.728104e+02	2.749520e+02	2.770198e+02	2.793747e+02	2.813270e+02	2.828478e+02	2.843193e+02	2.854990e+02	2.867963e+02	2.888368e+02	2.915206e+02	2.947429e+02	2.980523e+02	3.006073e+02	3.021228e+02	
SCALARS Mach double 1
LOOKUP_TABLE default
3.573978e-01	6.050949e-01	6.398912e-01	7.085208e-01	7.559191e-01	7.958318e-01	8.184472e-01	8.487494e-01	8.757727e-01	9.054424e-01	9.291868e-01	9.376515e-01	9.047069e-01	8.459615e-01	7.588407e-01	6.878436e-01	6.447501e-01	6.250516e-01	6.246599e-01	6.448990e-01	6.808257e-01	7.187395e-01	7.698396e-01	8.321867e-01	8.865575e-01	9.498946e-01	1.029713e+00	1.098542e+00	1.180859e+00	1.265334e+00	1.313264e+00	1.390032e+00	1.453521e+00	1.503380e+00	1.555681e+00	1.588419e+00	1.635986e+00	1.672383e+00	1.689311e+00	1.698433e+00	1.720685e+00	1.659569e+00	1.345469e+00	7.895122e-01	5.942205e-01	5.652822e-01	5.466846e-01	5.374986e-01	5.358937e-01	5.306771e-01	5.291060e-01	5.269340e-01	5.293064e-01	5.319460e-01	5.345256e-01	5.383234e-01	5.415674e-01	5.498790e-01	5.583429e-01	5.693910e-01	5.832986e-01	5.982435e-01	6.236358e-01	6.548698e-01	6.882525e-01	7.354774e-01	7.934760e-01	8.465534e-01	9.188068e-01	9.750401e-01	9.999683e-01	9.840940e-01	8.890387e-01	7.865392e-01	7.002007e-01	6.262474e-01	5.781956e-01	5.317003e-01	4.970615e-01	4.767160e-01	4.603993e-01	4.523834e-01	4.485331e-01	4.429942e-01	4.425037e-01	4.407497e-01	4.387451e-01	4.371676e-01	4.335151e-01	4.288264e-01	4.235922e-01	4.177265e-01	4.113003e-01	4.041301e-01	3.961079e-01	3.866379e-01	3.752706e-01	3.626141e-01	3.376239e-01	3.487809e-01	5.056524e-01	4.963179e-01	4.970083e-01	4.925034e-01	4.902502e-01	4.877000e-01	4.859614e-01	4.839630e-01	4.823432e-01	4.814347e-01	4.807304e-01	4.817869e-01	4.825173e-01	4.834444e-01	4.851406e-01	4.857869e-01	4.863474e-01	4.861501e-01	4.843610e-01	4.811582e-01	4.769460e-01	4.695009e-01	4.623140e-01	4.565322e-01	4.501330e-01	4.468446e-01	4.437166e-01	4.443912e-01	4.461852e-01	4.483933e-01	4.567507e-01	4.631498e-01	4.713882e-01	4.823457e-01	4.913210e-01	5.083093e-01	5.248188e-01	5.429879e-01	5.691715e-01	5.960409e-01	6.220772e-01	6.581443e-01	6.874287e-01	6.892500e-01	8.249855e-01	1.217479e+00	1.444017e+00	1.490996e+00	1.431331e+00	1.402493e+00	1.361344e+00	1.323862e+00	1.277000e+00	1.228090e+00	1.197923e+00	1.157514e+00	1.123786e+00	1.077097e+00	1.020857e+00	9.810223e-01	9.372218e-01	8.999998e-01	8.591786e-01	8.007904e-01	7.526750e-01	7.139930e-01	6.703438e-01	6.349812e-01	6.119712e-01	5.815889e-01	5.624674e-01	5.636453e-01	5.633997e-01	5.752280e-01	5.976562e-01	6.187802e-01	6.543442e-01	6.943788e-01	7.215352e-01	7.616203e-01	7.884320e-01	7.739516e-01	7.590278e-01	7.337316e-01	7.037216e-01	6.739470e-01	6.389297e-01	6.088513e-01	5.846561e-01	5.605139e-01	5.405717e-01	5.179551e-01	4.806875e-01	4.276710e-01	3.553027e-01	2.632896e-01	1.619686e-01	3.196617e-02	
SCALARS Pressure_Coefficient double 1
LOOKUP_TABLE default