# vtk DataFile Version 3.0
vtk output
ASCII
DATASET UNSTRUCTURED_GRID
POINTS 1827 double
1.000000e+02	0.000000e+00	0.0	9.917900e+01	1.278772e+01	0.0	9.672949e+01	2.536546e+01	0.0	9.269168e+01	3.752670e+01	0.0	8.713187e+01	4.907176e+01	0.0	8.014136e+01	5.981105e+01	0.0	7.183494e+01	6.956826e+01	0.0	6.234898e+01	7.818315e+01	0.0	5.183926e+01	8.551428e+01	0.0	4.047833e+01	9.144126e+01	0.0	2.845276e+01	9.586679e+01	0.0	1.595999e+01	9.871818e+01	0.0	3.205158e+00	9.994862e+01	0.0	-9.602303e+00	9.953791e+01	0.0	-2.225209e+01	9.749279e+01	0.0	-3.453651e+01	9.384684e+01	0.0	-4.625383e+01	8.865993e+01	0.0	-5.721167e+01	8.201723e+01	0.0	-6.723009e+01	7.402780e+01	0.0	-7.614460e+01	6.482284e+01	0.0	-8.380881e+01	5.455349e+01	0.0	-9.009689e+01	4.338837e+01	0.0	-9.490557e+01	3.151082e+01	0.0	-9.815592e+01	1.911586e+01	0.0	-9.979454e+01	6.407022e+00	0.0	-9.979454e+01	-6.407022e+00	0.0	-9.815592e+01	-1.911586e+01	0.0	-9.490557e+01	-3.151082e+01	0.0	-9.009689e+01	-4.338837e+01	0.0	-8.380881e+01	-5.455349e+01	0.0	-7.614460e+01	-6.482284e+01	0.0	-6.723009e+01	-7.402780e+01	0.0	-5.721167e+01	-8.201723e+01	0.0	-4.625383e+01	-8.865993e+01	0.0	-3.453651e+01	-9.384684e+01	0.0	-2.225209e+01	-9.749279e+01	0.0	-9.602303e+00	-9.953791e+01	0.0	3.205158e+00	-9.994862e+01	0.0	1.595999e+01	-9.871818e+01	0.0	2.845276e+01	-9.586679e+01	0.0	4.047833e+01	-9.144126e+01	0.0	5.183926e+01	-8.551428e+01	0.0	6.234898e+01	-7.818315e+01	0.0	7.183494e+01	-6.956826e+01	0.0	8.014136e+01	-5.981105e+01	0.0	8.713187e+01	-4.907176e+01	0.0	9.269168e+01	-3.752670e+01	0.0	9.672949e+01	-2.536546e+01	0.0	9.917900e+01	-1.278772e+01	0.0	0.000000e+00	0.000000e+00	0.0	3.050051e-03	3.961968e-03	0.0	6.214318e-03	8.072299e-03	0.0	1.068016e-02	1.105934e-02	0.0	1.536427e-02	1.407649e-02	0.0	2.070647e-02	1.627961e-02	0.0	2.625719e-02	1.851488e-02	0.0	3.214323e-02	2.045342e-02	0.0	3.824226e-02	2.243542e-02	0.0	4.458267e-02	2.438633e-02	0.0	5.114114e-02	2.639311e-02	0.0	5.792462e-02	2.844691e-02	0.0	6.492063e-02	3.060171e-02	0.0	7.213415e-02	3.285356e-02	0.0	7.954736e-02	3.526812e-02	0.0	8.718394e-02	3.778120e-02	0.0	9.504413e-02	4.040020e-02	0.0	1.031454e-01	4.307978e-02	0.0	1.114939e-01	4.580763e-02	0.0	1.200963e-01	4.856693e-02	0.0	1.289626e-01	5.132984e-02	0.0	1.380833e-01	5.412449e-02	0.0	1.475313e-01	5.670179e-02	0.0	1.572233e-01	5.934563e-02	0.0	1.672578e-01	6.164059e-02	0.0	1.775853e-01	6.378658e-02	0.0	1.881754e-01	6.586245e-02	0.0	1.991385e-01	6.717484e-02	0.0	2.103416e-01	6.851596e-02	0.0	2.218242e-01	6.932291e-02	0.0	2.335701e-01	6.974155e-02	0.0	2.455434e-01	7.014021e-02	0.0	2.577445e-01	7.005323e-02	0.0	2.701596e-01	6.996472e-02	0.0	2.827808e-01	6.984798e-02	0.0	2.955998e-01	6.970586e-02	0.0	3.086077e-01	6.956815e-02	0.0	3.217950e-01	6.970509e-02	0.0	3.351513e-01	6.984379e-02	0.0	3.486654e-01	6.998697e-02	0.0	3.623260e-01	7.013432e-02	0.0	3.761208e-01	7.026880e-02	0.0	3.900348e-01	6.996502e-02	0.0	4.040573e-01	6.965888e-02	0.0	4.181494e-01	6.887090e-02	0.0	4.323015e-01	6.768244e-02	0.0	4.465158e-01	6.644827e-02	0.0	4.607184e-01	6.461198e-02	0.0	4.749582e-01	6.277089e-02	0.0	4.892344e-01	6.104224e-02	0.0	5.035287e-01	5.940010e-02	0.0	5.178222e-01	5.784388e-02	0.0	5.321694e-01	5.728044e-02	0.0	5.464792e-01	5.671847e-02	0.0	5.607258e-01	5.704387e-02	0.0	5.748984e-01	5.795512e-02	0.0	5.889864e-01	5.890818e-02	0.0	6.029505e-01	6.022347e-02	0.0	6.168065e-01	6.152859e-02	0.0	6.305749e-01	6.227485e-02	0.0	6.442307e-01	6.266551e-02	0.0	6.577292e-01	6.283092e-02	0.0	6.709775e-01	6.113077e-02	0.0	6.840582e-01	5.945212e-02	0.0	6.967650e-01	5.680792e-02	0.0	7.091402e-01	5.346122e-02	0.0	7.213243e-01	5.016621e-02	0.0	7.331291e-01	4.632217e-02	0.0	7.447253e-01	4.252691e-02	0.0	7.561627e-01	3.896769e-02	0.0	7.674668e-01	3.574926e-02	0.0	7.785471e-01	3.259456e-02	0.0	7.896424e-01	3.057511e-02	0.0	8.005246e-01	2.870698e-02	0.0	8.112342e-01	2.741405e-02	0.0	8.217419e-01	2.649081e-02	0.0	8.320078e-01	2.568956e-02	0.0	8.420344e-01	2.506495e-02	0.0	8.518049e-01	2.440910e-02	0.0	8.613008e-01	2.349302e-02	0.0	8.705448e-01	2.260126e-02	0.0	8.795048e-01	2.145505e-02	0.0	8.882070e-01	2.026694e-02	0.0	8.966508e-01	1.904128e-02	0.0	9.048275e-01	1.770614e-02	0.0	9.127619e-01	1.641057e-02	0.0	9.204424e-01	1.507016e-02	0.0	9.278835e-01	1.375279e-02	0.0	9.350893e-01	1.246246e-02	0.0	9.420613e-01	1.118784e-02	0.0	9.488080e-01	9.954009e-03	0.0	9.553279e-01	8.730055e-03	0.0	9.616310e-01	7.546800e-03	0.0	9.677176e-01	6.382091e-03	0.0	9.735957e-01	5.253339e-03	0.0	9.792672e-01	4.145501e-03	0.0	9.847390e-01	3.069512e-03	0.0	9.900149e-01	2.019136e-03	0.0	9.950993e-01	9.915551e-04	0.0	1.000000e+00	0.000000e+00	0.0	9.950060e-01	2.381667e-04	0.0	9.898223e-01	4.262922e-04	0.0	9.844448e-01	5.643471e-04	0.0	9.788693e-01	6.599894e-04	0.0	9.730915e-01	7.324388e-04	0.0	9.671064e-01	7.497987e-04	0.0	9.609100e-01	7.450480e-04	0.0	9.544978e-01	6.763972e-04	0.0	9.478655e-01	5.921130e-04	0.0	9.410100e-01	4.129968e-04	0.0	9.339259e-01	2.279041e-04	0.0	9.266125e-01	-6.023611e-05	0.0	9.190637e-01	-3.806815e-04	0.0	9.112770e-01	-7.414855e-04	0.0	9.032503e-01	-1.166232e-03	0.0	8.949786e-01	-1.603946e-03	0.0	8.864599e-01	-2.063292e-03	0.0	8.776919e-01	-2.537318e-03	0.0	8.686718e-01	-2.999548e-03	0.0	8.593978e-01	-3.438841e-03	0.0	8.498710e-01	-3.887742e-03	0.0	8.400896e-01	-4.309214e-03	0.0	8.300559e-01	-4.741562e-03	0.0	8.197814e-01	-5.379589e-03	0.0	8.092600e-01	-6.080951e-03	0.0	7.985194e-01	-7.105232e-03	0.0	7.875557e-01	-8.380843e-03	0.0	7.763811e-01	-9.880010e-03	0.0	7.650446e-01	-1.190820e-02	0.0	7.534793e-01	-1.397733e-02	0.0	7.417629e-01	-1.645243e-02	0.0	7.298425e-01	-1.903340e-02	0.0	7.177154e-01	-2.167027e-02	0.0	7.053918e-01	-2.437336e-02	0.0	6.928750e-01	-2.711883e-02	0.0	6.801252e-01	-2.966971e-02	0.0	6.671829e-01	-3.217405e-02	0.0	6.540626e-01	-3.464072e-02	0.0	6.407266e-01	-3.679565e-02	0.0	6.272463e-01	-3.897391e-02	0.0	6.136267e-01	-4.113085e-02	0.0	5.998830e-01	-4.328125e-02	0.0	5.860373e-01	-4.547936e-02	0.0	5.721455e-01	-4.797530e-02	0.0	5.581741e-01	-5.048556e-02	0.0	5.441977e-01	-5.331214e-02	0.0	5.302155e-01	-5.637673e-02	0.0	5.161962e-01	-5.944671e-02	0.0	5.021393e-01	-6.244924e-02	0.0	4.880751e-01	-6.545334e-02	0.0	4.739305e-01	-6.796204e-02	0.0	4.597219e-01	-6.998202e-02	0.0	4.455496e-01	-7.198694e-02	0.0	4.312880e-01	-7.207671e-02	0.0	4.170931e-01	-7.216605e-02	0.0	4.030314e-01	-7.132658e-02	0.0	3.891107e-01	-6.966598e-02	0.0	3.752994e-01	-6.800572e-02	0.0	3.616677e-01	-6.592615e-02	0.0	3.481687e-01	-6.386682e-02	0.0	3.347604e-01	-6.228449e-02	0.0	3.214569e-01	-6.115801e-02	0.0	3.083215e-01	-6.004577e-02	0.0	2.953340e-01	-6.068039e-02	0.0	2.825350e-01	-6.130807e-02	0.0	2.699615e-01	-6.228247e-02	0.0	2.576230e-01	-6.361649e-02	0.0	2.454970e-01	-6.492752e-02	0.0	2.335407e-01	-6.559760e-02	0.0	2.218084e-01	-6.622227e-02	0.0	2.103364e-01	-6.600515e-02	0.0	1.991397e-01	-6.464386e-02	0.0	1.881828e-01	-6.331171e-02	0.0	1.777949e-01	-6.045243e-02	0.0	1.676954e-01	-5.742074e-02	0.0	1.578928e-01	-5.429356e-02	0.0	1.485275e-01	-5.066661e-02	0.0	1.393978e-01	-4.713090e-02	0.0	1.304663e-01	-4.378761e-02	0.0	1.217363e-01	-4.062725e-02	0.0	1.132436e-01	-3.755279e-02	0.0	1.047739e-01	-3.525724e-02	0.0	9.650710e-02	-3.315045e-02	0.0	8.843855e-02	-3.130107e-02	0.0	8.051698e-02	-2.993856e-02	0.0	7.283459e-02	-2.861720e-02	0.0	6.535407e-02	-2.755727e-02	0.0	5.810432e-02	-2.655096e-02	0.0	5.111037e-02	-2.541426e-02	0.0	4.435312e-02	-2.424446e-02	0.0	3.789177e-02	-2.276373e-02	0.0	3.167629e-02	-2.118621e-02	0.0	2.584798e-02	-1.909000e-02	0.0	2.031865e-02	-1.682436e-02	0.0	1.519661e-02	-1.414971e-02	0.0	1.051722e-02	-1.113557e-02	0.0	6.213958e-03	-7.924518e-03	0.0	2.498373e-03	-4.304979e-03	0.0	6.784508e-01	-3.948556e-02	0.0	6.704343e-01	-4.144093e-02	0.0	8.676797e+01	2.708764e+01	0.0	8.233233e+01	3.607528e+01	0.0	7.730555e+01	2.663090e+01	0.0	7.647121e+01	-1.344336e+01	0.0	7.854972e+01	-2.422908e+01	0.0	8.747307e+01	-1.794000e+01	0.0	8.655967e+01	-4.371980e+00	0.0	3.575604e+01	2.317497e+01	0.0	4.727074e+01	3.093759e+01	0.0	3.679627e+01	3.768034e+01	0.0	7.338405e+01	3.423928e+01	0.0	6.813377e+01	-3.213363e+01	0.0	7.549254e+01	-4.251513e+01	0.0	8.170029e+01	-3.531266e+01	0.0	8.756076e+01	-2.791839e+01	0.0	5.487757e+01	2.238571e+01	0.0	4.485801e+01	1.746369e+01	0.0	5.248742e+01	1.199475e+01	0.0	5.466203e+01	-5.831520e+01	0.0	6.163546e+01	-6.216394e+01	0.0	6.358410e+01	-5.392235e+01	0.0	6.832740e+01	5.962553e+01	0.0	7.252386e+01	5.058736e+01	0.0	5.851341e+01	6.570729e+01	0.0	4.781028e+01	-6.327008e+01	0.0	4.406620e+01	-7.158891e+01	0.0	5.509790e+01	-6.981235e+01	0.0	6.603048e+01	-4.441073e+01	0.0	5.146155e+01	7.475792e+01	0.0	3.493698e+01	5.945414e+01	0.0	2.807613e+01	6.414899e+01	0.0	2.541876e+01	5.645833e+01	0.0	2.483543e+01	7.281286e+01	0.0	3.897172e+01	7.790776e+01	0.0	2.439610e+01	8.657873e+01	0.0	3.218640e+01	-6.847685e+01	0.0	2.436136e+01	-7.741265e+01	0.0	3.718096e+01	-8.026831e+01	0.0	-7.713040e+00	5.476166e+01	0.0	4.308092e+00	5.237847e+01	0.0	-9.919376e-01	6.426763e+01	0.0	8.514841e+00	8.944299e+01	0.0	1.151825e+01	7.758510e+01	0.0	2.210273e+01	4.842553e+01	0.0	1.607791e+01	5.464617e+01	0.0	1.376908e+01	4.443260e+01	0.0	5.337690e+00	6.855240e+00	0.0	3.617649e+00	4.340395e+00	0.0	5.244388e+00	3.636744e+00	0.0	3.144389e+00	3.771801e-01	0.0	2.558634e+00	8.254445e-01	0.0	2.295502e+00	2.849723e-01	0.0	1.623188e+00	6.052287e-01	0.0	1.615313e+00	3.183980e-01	0.0	1.882437e+00	4.235550e-01	0.0	1.191276e+00	-7.283564e-02	0.0	1.282660e+00	-1.688366e-02	0.0	1.195985e+00	1.014231e-02	0.0	1.101046e+00	2.125164e-01	0.0	1.066797e+00	1.444949e-01	0.0	1.120290e+00	1.277382e-01	0.0	9.929254e-01	3.167661e-02	0.0	9.823235e-01	3.811697e-02	0.0	9.798381e-01	2.720861e-02	0.0	9.989858e-01	8.319506e-03	0.0	1.000832e+00	3.915059e-03	0.0	1.004405e+00	6.527990e-03	0.0	9.934299e-01	7.377997e-03	0.0	9.941918e-01	1.241386e-02	0.0	2.501863e-01	-8.838046e-02	0.0	2.648697e-01	-8.284540e-02	0.0	2.493729e-01	-7.769138e-02	0.0	5.226800e-02	-3.015375e-02	0.0	3.616436e-01	9.322524e-02	0.0	3.652532e-01	1.134511e-01	0.0	3.455429e-01	9.914842e-02	0.
[...]
POINT_DATA 1827

SCALARS Density double 1
LOOKUP_TABLE default
1.291572e+00	1.291583e+00	1.291973e+00	1.292174e+00	1.292107e+00	1.292013e+00	1.291964e+00	1.291910e+00	1.291838e+00	1.291769e+00	1.291718e+00	1.291692e+00	1.291699e+00	1.291761e+00	1.291859e+00	1.291961e+00	1.292046e+00	1.292117e+00	1.292171e+00	1.292209e+00	1.292239e+00	1.292260e+00	1.292276e+00	1.292291e+00	1.292302e+00	1.292314e+00	1.292327e+00	1.292342e+00	1.292360e+00	1.292385e+00	1.292415e+00	1.292455e+00	1.292506e+00	1.292572e+00	1.292650e+00	1.292737e+00	1.292827e+00	1.292892e+00	1.292906e+00	1.292880e+00	1.292823e+00	1.292740e+00	1.292663e+00	1.292580e+00	1.292497e+00	1.292437e+00	1.292444e+00	1.292335e+00	1.291957e+00	1.538695e+00	1.236032e+00	1.187785e+00	1.098946e+00	1.067704e+00	1.057242e+00	1.111817e+00	1.143871e+00	1.177794e+00	1.191476e+00	1.205478e+00	1.214116e+00	1.219617e+00	1.220081e+00	1.213709e+00	1.200892e+00	1.185130e+00	1.167068e+00	1.146729e+00	1.122977e+00	1.097738e+00	1.060383e+00	1.027794e+00	9.888920e-01	9.432414e-01	9.175343e-01	8.547251e-01	8.003424e-01	7.661293e-01	7.142912e-01	6.948152e-01	6.739828e-01	6.539019e-01	6.564324e-01	6.610380e-01	6.657107e-01	6.841219e-01	7.075789e-01	7.163182e-01	7.219779e-01	7.281780e-01	7.127318e-01	6.933662e-01	6.757348e-01	6.426809e-01	6.272757e-01	6.049960e-01	5.796844e-01	5.955442e-01	7.351113e-01	1.081796e+00	1.239496e+00	1.242953e+00	1.231063e+00	1.233405e+00	1.203015e+00	1.171724e+00	1.138149e+00	1.074539e+00	1.010085e+00	9.606057e-01	8.385657e-01	7.539155e-01	7.611058e-01	8.286026e-01	1.016228e+00	1.111771e+00	1.148009e+00	1.195568e+00	1.225768e+00	1.240454e+00	1.263356e+00	1.272247e+00	1.263271e+00	1.265550e+00	1.252772e+00	1.241556e+00	1.231127e+00	1.214995e+00	1.210587e+00	1.208356e+00	1.205982e+00	1.213305e+00	1.216158e+00	1.222214e+00	1.229161e+00	1.233888e+00	1.240931e+00	1.245927e+00	1.251328e+00	1.256390e+00	1.261390e+00	1.266819e+00	1.271998e+00	1.277587e+00	1.283469e+00	1.289726e+00	1.300691e+00	1.297295e+00	1.318148e+00	1.424442e+00	1.376664e+00	1.379425e+00	1.382521e+00	1.381990e+00	1.382574e+00	1.382689e+00	1.383732e+00	1.383243e+00	1.383229e+00	1.383016e+00	1.380264e+00	1.379795e+00	1.377563e+00	1.375215e+00	1.373864e+00	1.372252e+00	1.371139e+00	1.372276e+00	1.373919e+00	1.376785e+00	1.385112e+00	1.389935e+00	1.396085e+00	1.401776e+00	1.400633e+00	1.404834e+00	1.397862e+00	1.390581e+00	1.383864e+00	1.367794e+00	1.355669e+00	1.342656e+00	1.323903e+00	1.309878e+00	1.301358e+00	1.286714e+00	1.281114e+00	1.282309e+00	1.280209e+00	1.281163e+00	1.286171e+00	1.283826e+00	1.279746e+00	1.277174e+00	1.257371e+00	1.232841e+00	1.214632e+00	1.175249e+00	1.012200e+00	8.372757e-01	7.683538e-01	8.215795e-01	9.169298e-01	9.680713e-01	1.067163e+00	1.137123e+00	1.192313e+00	1.259488e+00	1.300912e+00	1.314836e+00	1.355588e+00	1.360730e+00	1.331505e+00	1.320532e+00	1.286385e+00	1.223035e+00	1.167887e+00	1.006310e+00	8.767279e-01	8.985296e-01	9.207053e-01	1.005752e+00	1.142192e+00	1.190960e+00	1.251633e+00	1.320661e+00	1.361474e+00	1.389332e+00	1.427418e+00	1.448663e+00	1.447160e+00	1.460065e+00	1.457071e+00	1.451814e+00	1.447453e+00	1.433002e+00	1.424570e+00	1.413536e+00	1.411291e+00	1.409483e+00	1.422809e+00	1.449174e+00	1.476029e+00	1.525852e+00	1.567581e+00	1.599310e+00	1.662707e+00	1.305085e+00	1.297094e+00	1.292063e+00	1.292105e+00	1.292036e+00	1.292136e+00	1.292325e+00	1.292201e+00	1.291860e+00	1.291943e+00	1.291949e+00	1.291732e+00	1.292049e+00	1.292443e+00	1.292438e+00	1.292396e+00	1.292360e+00	1.291949e+00	1.291882e+00	1.291873e+00	1.292639e+00	1.292612e+00	1.292558e+00	1.291956e+00	1.292002e+00	1.291891e+00	1.292720e+00	1.292767e+00	1.292676e+00	1.292483e+00	1.291840e+00	1.291675e+00	1.291614e+00	1.291544e+00	1.291610e+00	1.291742e+00	1.291669e+00	1.292879e+00	1.292935e+00	1.292840e+00	1.291334e+00	1.291217e+00	1.291413e+00	1.291642e+00	1.291566e+00	1.291400e+00	1.291369e+00	1.291180e+00	1.287938e+00	1.285720e+00	1.290182e+00	1.285597e+00	1.289750e+00	1.284541e+00	1.291749e+00	1.290088e+00	1.292522e+00	1.322038e+00	1.298548e+00	1.286794e+00	1.297209e+00	1.303973e+00	1.309927e+00	1.301897e+00	1.296711e+00	1.291935e+00	1.305469e+00	1.321397e+00	1.304762e+00	1.302397e+00	1.304594e+00	1.218675e+00	1.266781e+00	1.213697e+00	1.424861e+00	7.350138e-01	7.241873e-01	7.104328e-01	1.259538e+00	1.274206e+00	1.265388e+00	1.124552e+00	1.433135e+00	1.423551e+00	1.258354e+00	1.253447e+00	1.265109e+00	1.377452e+00	1.376174e+00	1.374254e+00	1.427806e+00	1.432809e+00	1.430181e+00	1.435490e+00	1.436219e+00	1.440304e+00	1.383209e+00	1.377347e+00	1.373915e+00	1.337008e+00	1.347630e+00	1.352682e+00	1.351146e+00	1.368777e+00	1.366707e+00	1.312152e+00	1.323488e+00	1.335267e+00	7.340210e-01	7.334046e-01	9.846675e-01	8.775424e-01	9.330918e-01	1.123094e+00	1.005975e+00	1.093583e+00	6.819027e-01	6.722863e-01	6.445793e-01	9.232444e-01	1.037980e+00	9.135807e-01	8.953334e-01	8.275991e-01	8.487773e-01	1.120639e+00	1.184833e+00	1.204634e+00	1.145189e+00	1.234223e+00	1.198452e+00	9.357045e-01	1.234188e+00	1.117759e+00	1.095411e+00	1.058705e+00	1.197347e+00	1.177170e+00	1.187942e+00	1.213808e+00	1.213938e+00	1.379895e+00	1.381290e+00	1.082490e+00	1.027114e+00	1.040851e+00	1.180867e+00	1.153481e+00	1.150806e+00	1.201002e+00	1.015108e+00	1.057359e+00	8.127689e-01	7.941852e-01	1.207998e+00	1.213199e+00	1.218849e+00	9.192698e-01	8.453149e-01	1.217449e+00	1.205538e+00	1.225723e+00	1.231533e+00	1.013708e+00	7.484447e-01	7.839013e-01	7.440869e-01	1.075532e+00	1.139267e+00	1.290949e+00	1.290245e+00	1.289628e+00	7.732018e-01	7.178954e-01	6.934313e-01	7.085303e-01	6.493106e-01	1.383601e+00	1.383438e+00	1.370056e+00	1.364350e+00	1.371767e+00	1.229639e+00	1.239097e+00	1.217566e+00	1.224519e+00	1.244801e+00	1.224680e+00	1.248587e+00	1.238810e+00	1.227706e+00	1.230508e+00	1.255641e+00	1.257008e+00	1.260499e+00	1.383986e+00	1.382424e+00	1.383760e+00	1.212120e+00	1.219300e+00	1.248434e+00	1.254392e+00	1.247046e+00	1.121665e+00	1.153304e+00	1.115202e+00	1.263530e+00	1.260071e+00	1.260819e+00	1.235708e+00	1.228391e+00	1.236610e+00	1.244759e+00	1.243735e+00	1.260498e+00	1.263919e+00	1.241945e+00	1.236179e+00	1.230683e+00	1.257366e+00	1.262677e+00	1.268903e+00	1.261734e+00	1.265721e+00	1.278173e+00	1.269136e+00	1.277286e+00	1.278273e+00	1.274023e+00	1.285522e+00	1.279691e+00	1.285367e+00	1.381941e+00	1.383505e+00	1.383945e+00	1.307802e+00	1.295648e+00	1.276574e+00	1.297526e+00	1.264966e+00	1.203464e+00	1.029545e+00	9.879798e-01	1.321927e+00	1.377363e+00	1.375745e+00	1.383193e+00	1.071474e+00	1.338486e+00	1.378160e+00	1.390833e+00	1.364160e+00	1.358393e+00	1.342517e+00	1.346984e+00	1.291362e+00	1.291772e+00	1.280183e+00	1.293645e+00	1.288047e+00	1.296260e+00	1.307702e+00	1.250690e+00	1.235372e+00	1.235614e+00	9.989636e-01	1.045460e+00	9.851043e-01	1.291317e+00	1.291115e+00	1.186738e+00	1.154463e+00	7.472891e-01	7.197754e-01	5.832150e-01	5.953029e-01	7.051446e-01	6.942363e-01	6.748642e-01	6.859701e-01	7.058341e-01	1.291811e+00	1.291757e+00	1.284852e+00	1.287442e+00	1.284928e+00	1.281044e+00	1.278994e+00	1.282881e+00	6.736106e-01	1.291730e+00	1.291692e+00	6.619505e-01	6.617327e-01	8.539802e-01	7.900561e-01	7.787575e-01	7.062615e-01	7.054139e-01	6.840520e-01	8.557722e-01	7.839855e-01	8.163524e-01	1.291880e+00	1.205328e+00	1.154784e+00	1.139097e+00	9.472032e-01	9.884405e-01	1.236415e+00	1.268599e+00	1.185922e+00	1.200203e+00	1.139260e+00	1.478319e+00	1.470921e+00	1.495698e+00	1.440002e+00	1.441250e+00	1.446428e+00	1.435357e+00	1.427729e+00	1.425918e+00	1.428392e+00	1.434099e+00	1.419269e+00	1.415235e+00	1.430010e+00	1.588827e+00	1.562300e+00	1.470111e+00	1.487201e+00	1.507647e+00	1.440357e+00	1.587908e+00	1.537521e+00	1.567831e+00	1.374982e+00	1.375933e+00	1.379283e+00	1.383178e+00	1.380810e+00	1.378658e+00	1.359812e+00	1.358317e+00	1.340264e+00	1.432817e+00	1.453319e+00	1.382685e+00	1.377514e+00	1.382014e+00	1.383287e+00	1.380629e+00	1.392604e+00	1.388645e+00	1.390681e+00	1.393134e+00	1.387977e+00	1.415052e+00	1.431982e+00	1.150535e+00	1.161561e+00	1.130122e+00	1.101058e+00	1.166764e+00	1.146704e+00	1.067792e+00	1.085470e+00	1.053830e+00	1.212241e+00	1.190580e+00	1.207230e+00	1.141968e+00	1.164414e+00	1.133434e+00	1.186522e+00	1.203075e+00	1.026337e+00	1.030689e+00	1.225169e+00	1.232138e+00	1.229338e+00	1.229895e+00	1.227674e+00	1.233373e+00	1.234024e+00	1.227462e+00	1.223597e+00	1.291996e+00	1.292165e+00	1.291362e+00	1.291559e+00	1.290833e+00	1.291965e+00	1.291222e+00	1.292465e+00	1.292650e+00	1.292919e+00	1.292142e+00	1.292193e+00	1.292162e+00	1.260830e+00	1.304247e+00	1.245783e+00	1.292283e+00	1.292257e+00	1.292281e+00	1.292224e+00	1.292220e+00	1.292315e+00	1.292340e+00	1.292352e+00	1.292369e+00	1.292454e+00	1.292384e+00	1.292405e+00	1.292431e+00	1.292493e+00	1.292400e+00	1.292385e+00	1.292528e+00	1.292501e+00	1.292445e+00	1.292306e+00	1.292227e+00	1.292177e+00	1.292617e+00	1.295417e+00	1.296780e+00	1.294758e+00	1.292552e+00	1.296272e+00	1.295963e+00	1.292218e+00	1.292614e+00	1.292706e+00	1.305107e+00	1.308982e+00	1.304062e+00	1.292771e+00	1.292824e+00	1.292701e+00	1.293358e+00	1.293504e+00	1.293213e+00	1.296776e+00	1.298504e+00	1.298674e+00	1.293065e+00	1.293033e+00	1.293118e+00	1.371490e+00	1.292927e+00	1.292902e+00	1.336516e+00	1.302136e+00	1.338145e+00	1.295419e+00	1.294238e+00	1.294628e+00	1.342360e+00	1.323819e+00	1.288663e+00	1.320305e+00	1.309860e+00	1.331261e+00	1.292884e+00	1.292928e+00	1.320726e+00	1.173404e+00	1.202036e+00	1.153822e+00	1.313154e+00	1.322529e+00	1.319360e+00	1.310239e+00	1.308497e+00	1.315778e+00	1.287624e+00	1.290513e+00	1.286635e+00	1.294888e+00	1.293036e+00	1.299200e+00	1.277189e+00	1.281016e+00	1.284209e+00	1.286463e+00	1.399481e+00	1.397402e+00	1.370334e+00	1.357113e+00	1.370390e+00	1.400110e+00	1.286827e+00	1.286105e+00	1.288141e+00	1.380928e+00	1.292977e+00	1.386004e+00	1.353847e+00	1.319317e+00	1.292300e+00	1.199195e+00	7.581553e-01	7.310697e-01	1.291921e+00	1.292053e+00	1.291920e+00	1.169805e+00	1.113221e+00	1.126757e+00	1.346113e+00	1.360929e+00	1.354739e+00	1.293021e+00	1.292992e+00	1.292307e+00	1.292342e+00	1.292351e+00	1.291791e+00	1.291920e+00	1.291946e+00	1.293647e+00	1.292793e+00	1.291791e+00	1.291694e+00	1.291794e+00	1.291684e+00	1.291938e+00	1.291843e+00	1.292556e+00	1.292485e+00	1.291978e+00	1.291924e+00	1.292020e+00	1.292992e+00	1.293527e+00	1.293406e+00	1.292167e+00	1.292225e+00	1.292259e+00	1.293231e+00	1.293763e+00	1.293557e+00	1.295039e+00	1.294363e+00	1.293595e+00	1.291161e+00	1.291472e+00	1.291814e+00	1.291697e+00	1.289358e+00	1.291655e+00	1.294008e+00	1.293135e+00	1.292832e+00	1.292822e+00	1.292656e+00	1.292266e+00	1.292121e+00	1.292183e+00	1.292083e+00	1.291685e+00	1.291591e+00	1.292945e+00	1.292985e+00	1.292059e+00	1.292016e+00	1.291902e+00	1.291791e+00	1.291856e+00	1.291917e+00	1.291834e+00	1.292320e+00	1.292564e+00	1.292749e+00	1.292606e+00	1.291849e+00	1.291521e+00	1.292129e+00	1.292396e+00	1.307921e+00	1.227431e+00	1.216783e+00	1.221101e+00	1.290759e+00	1.291608e+00	1.291402e+00	1.292309e+00	1.293029e+00	1.291547e+00	1.291783e+00	1.291928e+00	1.292028e+00	1.292607e+00	1.292710e+00	1.292799e+00	1.290940e+00	1.291395e+00	1.293205e+00	1.292961e+00	1.293086e+00	1.292407e+00	1.292546e+00	1.292729e+00	1.294294e+00	1.293765e+00	1.293044e+00	1.291542e+00	1.293230e+00	1.294774e+00	1.295730e+00	1.292073e+00	1.292322e+00	1.292881e+00	1.292845e+00	1.292475e+00	1.291602e+00	1.292243e+00	1.292337e+00	1.292411e+00	1.292395e+00	1.292439e+00	1.292013e+00	1.292099e+00	1.292943e+00	1.291473e+00	1.291516e+00	1.292984e+00	1.291846e+00	1.291817e+00	1.293006e+00	1.292023e+00	1.292508e+00	1.292500e+00	1.292616e+00	1.292702e+00	1.292309e+00	1.293158e+00	1.292681e+00	1.291987e+00	1.291514e+00	1.291513e+00	1.291866e+00	1.291862e+00	1.293272e+00	1.292750e+00	1.291811e+00	1.290115e+00	1.290806e+00	1.293960e+00	1.292560e+00	1.292510e+00	1.291686e+00	1.291675e+00	1.291663e+00	1.292489e+00	1.292005e+00	1.292470e+00	1.292532e+00	1.292004e+00	1.291706e+00	1.293198e+00	1.293379e+00	1.291264e+00	1.291941e+00	1.292802e+00	1.291847e+00	1.292911e+00	1.292558e+00	1.292185e+00	1.291868e+00	1.292588e+00	1.292379e+00	1.292697e+00	1.293089e+00	1.293050e+00	1.292983e+00	1.292244e+00	1.383472e+00	1.383051e+00	1.382754e+00	1.293187e+00	1.454795e+00	1.574131e+00	1.374918e+00	1.292422e+00	1.289958e+00	1.291594e+00	1.292271e+00	1.293018e+00	1.294419e+00	1.291440e+00	1.293946e+00	1.388771e+00	1.302888e+00	1.365938e+00	1.288979e+00	1.289569e+00	1.291272e+00	1.296766e+00	1.295862e+00	1.298104e+00	1.295435e+00	1.311540e+00	1.327340e+00	1.330785e+00	1.290170e+00	1.258350e+00	1.269014e+00	1.239322e+00	1.292944e+00	1.288105e+00	1.290285e+00	1.296104e+00	1.290680e+00	1.288676e+00	1.289144e+00	1.388802e+00	1.377803e+00	1.364941e+00	1.291951e+00	1.288353e+00	1.291096e+00	1.294393e+00	1.291250e+00	1.292261e+00	1.382925e+00	1.290415e+00	1.293198e+00	1.296295e+00	1.290919e+00	1.289307e+00	1.300171e+00	1.526684e+00	1.491059e+00	1.296167e+00	1.293203e+00	1.292131e+00	1.286065e+00	1.283349e+00	1.273474e+00	1.283993e+00	1.410127e+00	1.401488e+00	1.430635e+00	1.298862e+00	1.289512e+00	1.297745e+00	1.278211e+00	1.284941e+00	1.283139e+00	1.301719e+00	1.301006e+00	1.305037e+00	1.302146e+00	1.292648e+00	7.428880e-01	6.899166e-01	6.923417e-01	1.289220e+00	1.299833e+00	1.307639e+00	1.306991e+00	1.301819e+00	1.288311e+00	1.289020e+00	1.272378e+00	1.305617e+00	1.306261e+00	1.302327e+00	1.381773e+00	1.377862e+00	1.382382e+00	1.288598e+00	1.288506e+00	1.093573e+00	1.069128e+00	1.259873e+00	1.278554e+00	1.314765e+00	1.298570e+00	1.299510e+00	1.293859e+00	1.295865e+00	1.298698e+00	1.295263e+00	1.292917e+00	1.302328e+00	1.297405e+00	1.097299e+00	1.025314e+00	1.265128e+00	1.293721e+00	1.289818e+00	1.300531e+00	1.308202e+00	1.302626e+00	1.272144e+00	1.287440e+00	1.294345e+00	1.287264e+00	1.313325e+00	1.381778e+00	1.381357e+00	1.282434e+00	1.284215e+00	1.302455e+00	1.297488e+00	1.302780e+00	1.311159e+00	1.297257e+00	1.280513e+00	1.307638e+00	1.309021e+00	1.312850e+00	1.257500e+00	1.236233e+00	1.195173e+00	1.286747e+00	1.282152e+00	1.299569e+00	1.226081e+00	1.209707e+00	1.228367e+00	1.308590e+00	1.306141e+00	1.313703e+00	1.324080e+00	1.341462e+00	1.305490e+00	1.165662e+00	1.258300e+00	1.281847e+00	1.295135e+00	1.369808e+00	1.394504e+00	1.325861e+00	1.413898e+00	1.259087e+00	1.281161e+00	1.283287e+00	1.338399e+00	1.329707e+00	1.332198e+00	1.236110e+00	1.267662e+00	1.264851e+00	1.276536e+00	1.292451e+00	1.301799e+00	1.302110e+00	1.315267e+00	1.315781e+00	1.314770e+00	1.275885e+00	1.259318e+00	1.293647e+00	1.214055e+00	9.907832e-01	1.191836e+00	1.320884e+00	1.331910e+00	1.325123e+00	1.311587e+00	1.321654e+00	1.339164e+00	1.350772e+00	1.319175e+00	1.300338e+00	1.301966e+00	1.317032e+00	1.309993e+00	1.310889e+00	1.294402e+00	1.340161e+00	1.325855e+00	1.340893e+00	1.076211e+00	1.338718e+00	1.329463e+00	1.288765e+00	1.266183e+00	1.276754e+00	1.249529e+00	1.311843e+00	1.119040e+00	1.110840e+00	1.069983e+00	1.296345e+00	1.087414e+00	1.185937e+00	6.822841e-01	1.211146e+00	1.326955e+00	1.319327e+00	1.295393e+00	1.346508e+00	1.332197e+00	1.260151e+00	1.254140e+00	1.257801e+00	1.335480e+00	1.318826e+00	1.256583e+00	1.352980e+00	1.288276e+00	1.277527e+00	1.272836e+00	1.173785e+00	1.164863e+00	1.148330e+00	1.197553e+00	1.132346e+00	1.374976e+00	1.294639e+00	1.327620e+00	1.378044e+00	1.355666e+00	1.391108e+00	1.235839e+00	1.160990e+00	1.252088e+00	1.281747e+00	1.242817e+00	1.254211e+00	1.249458e+00	1.245578e+00	1.322268e+00	1.379527e+00	1.386981e+00	1.278598e+00	1.309239e+00	1.323418e+00	1.291879e+00	1.279489e+00	9.361203e-01	9.286594e-01	8.423471e-01	7.519893e-01	7.481314e-01	7.343410e-01	1.287034e+00	1.284122e+00	1.269144e+00	1.342910e+00	1.322503e+00	1.444359e+00	1.422093e+00	1.346555e+00	1.345646e+00	1.239123e+00	1.228035e+00	1.195114e+00	1.262779e+00	1.307134e+00	1.372175e+00	1.449356e+00	1.443691e+00	1.343004e+00	1.289149e+00	1.219657e+00	1.247509e+00	1.199360e+00	1.322396e+00	1.329774e+00	1.282239e+00	1.298618e+00	1.377609e+00	1.053972e+00	1.116804e+00	1.130703e+00	1.059374e+00	1.036025e+00	8.915675e-01	9.269039e-01	1.322741e+00	1.378361e+00	1.295138e+00	1.302655e+00	1.367102e+00	1.401300e+00	1.400899e+00	1.272790e+00	1.294555e+00	1.329387e+00	1.324133e+00	1.341210e+00	1.353865e+00	1.332981e+00	1.006872e+00	1.075576e+00	9.764512e-01	1.168149e+00	1.228143e+00	1.229141e+00	6.310629e-01	1.300523e+00	7.977715e-01	8.438819e-01	1.204856e+00	1.378116e+00	1.375576e+00	1.373805e+00	1.350471e+00	1.294532e+00	1.257310e+00	1.192514e+00	1.399878e+00	1.244795e+00	1.218964e+00	1.225539e+00	1.221217e+00	1.269332e+00	1.253508e+00	1.242964e+00	1.238675e+00	1.373089e+00	1.247560e+00	1.214953e+00	1.239357e+00	1.326355e+00	1.340995e+00	9.609456e-01	1.352747e+00	1.360141e+00	1.356516e+00	1.342866e+00	7.552110e-01	7.125940e-01	8.023758e-01	1.383563e+00	1.395042e+00	1.397398e+00	1.394907e+00	1.378131e+00	1.247330e+00	1.366236e+00	1.290061e+00	1.380173e+00	1.182790e+00	1.129409e+00	1.237930e+00	1.185553e+00	1.311762e+00	1.301007e+00	1.280516e+00	1.296088e+00	1.090637e+00	1.030754e+00	1.093459e+00	1.011525e+00	7.850263e-01	1.246458e+00	1.397508e+00	1.299202e+00	1.307004e+00	1.305860e+00	1.379909e+00	1.271147e+00	1.272273e+00	1.264620e+00	1.257494e+00	1.261608e+00	1.460283e+00	1.428645e+00	1.438764e+00	1.351917e+00	1.382157e+00	1.280358e+00	1.282903e+00	1.305424e+00	1.145109e+00	1.197091e+00	1.005429e+00	1.091628e+00	1.055076e+00	9.328758e-01	9.295365e-01	8.798892e-01	7.182241e-01	7.119560e-01	1.384562e+00	1.384422e+00	1.384192e+00	7.222036e-01	7.360063e-01	9.364964e-01	1.358996e+00	7.481089e-01	7.853200e-01	1.210466e+00	1.217145e+00	1.286285e+00	1.307374e+00	1.356342e+00	1.353442e+00	1.445293e+00	1.418710e+00	1.477898e+00	1.306854e+00	1.248530e+00	1.257381e+00	1.259769e+00	1.344517e+00	1.355571e+00	7.429374e-01	7.472839e-01	1.039691e+00	1.130285e+00	9.970573e-01	1.220779e+00	1.166335e+00	1.093369e+00	1.216883e+00	1.239506e+00	1.331016e+00	1.199894e+00	1.184282e+00	1.025098e+00	9.655648e-01	1.058051e+00	1.351182e+00	1.335674e+00	1.162491e+00	8.740061e-01	9.082465e-01	8.217151e-01	1.300204e+00	1.274117e+00	1.288045e+00	1.327733e+00	1.365334e+00	1.401932e+00	1.417133e+00	1.264214e+00	1.309737e+00	1.320028e+00	1.391294e+00	1.395387e+00	1.379068e+00	1.331457e+00	1.382015e+00	1.283174e+00	1.292752e+00	1.506622e+00	1.483810e+00	1.380419e+00	1.381247e+00	1.382570e+00	6.641422e-01	6.661675e-01	1.024870e+00	9.724888e-01	1.126605e+00	1.141801e+00	1.352922e+00	1.361867e+00	1.360292e+00	1.364396e+00	1.278632e+00	1.300191e+00	1.296316e+00	1.239520e+00	1.380053e+00	1.383217e+00	1.301328e+00	1.307478e+00	1.345019e+00	1.136537e+00	6.998882e-01	6.929220e-01	1.314133e+00	1.119358e+00	1.141635e+00	1.306871e+00	1.311832e+00	1.347136e+00	1.320751e+00	1.342216e+00	1.380387e+00	1.365041e+00	1.259096e+00	1.423594e+00	1.468587e+00	1.321910e+00	1.319772e+00	1.241469e+00	1.194060e+00	1.246946e+00	1.303041e+00	1.046733e+00	1.022150e+00	1.278767e+00	1.265371e+00	1.249292e+00	1.243611e+00	1.252125e+00	6.104696e-01	6.295222e-01	1.380309e+00	1.170850e+00	1.138513e+00	9.660282e-01	1.029277e+00	1.183810e+00	1.473365e+00	1.502826e+00	1.182653e+00	1.389172e+00	9.465725e-01	6.875734e-01	7.160732e-01	7.022828e-01	1.385285e+00	1.387468e+00	9.199300e-01	1.301573e+00	1.090131e+00	1.164002e+00	1.235616e+00	1.260824e+00	1.245313e+00	1.253380e+00	1.260710e+00	1.258951e+00	1.256485e+00	1.252407e+00	1.276524e+00	1.286844e+00	1.310081e+00	1.306473e+00	1.306565e+00	1.369350e+00	1.370779e+00	1.301973e+00	7.753625e-01	8.436043e-01	7.008040e-01	6.780028e-01	6.716756e-01	7.962897e-01	1.458376e+00	1.479820e+00	1.457298e+00	1.443749e+00	1.262352e+00	1.265596e+00	9.680300e-01	9.790534e-01	8.724946e-01	1.267381e+00	1.283695e+00	1.092354e+00	1.147235e+00	1.280898e+00	1.376004e+00	1.396212e+00	1.433486e+00	1.214662e+00	1.279012e+00	1.383769e+00	1.159898e+00	1.188513e+00	1.335413e+00	1.296704e+00	1.300916e+00	1.284983e+00	1.343282e+00	1.288647e+00	1.355746e+00	1.241587e+00	1.260033e+00	1.221477e+00	1.148122e+00	7.281544e-01	7.318132e-01	1.061612e+00	1.338367e+00	1.407873e+00	1.383421e+00	1.383477e+00	1.384010e+00	1.317881e+00	1.354308e+00	1.293504