# vtk DataFile Version 3.0
vtk output
ASCII
DATASET UNSTRUCTURED_GRID
POINTS 198 double
0.000000e+00	0.000000e+00	0.0	3.050051e-03	3.961968e-03	0.0	6.214318e-03	8.072299e-03	0.0	1.068016e-02	1.105934e-02	0.0	1.536427e-02	1.407649e-02	0.0	2.070647e-02	1.627961e-02	0.0	2.625719e-02	1.851488e-02	0.0	3.214323e-02	2.045342e-02	0.0	3.824226e-02	2.243542e-02	0.0	4.458267e-02	2.438633e-02	0.0	5.114114e-02	2.639311e-02	0.0	5.792462e-02	2.844691e-02	0.0	6.492063e-02	3.060171e-02	0.0	7.213415e-02	3.285356e-02	0.0	7.954736e-02	3.526812e-02	0.0	8.718394e-02	3.778120e-02	0.0	9.504413e-02	4.040020e-02	0.0	1.031454e-01	4.307978e-02	0.0	1.114939e-01	4.580763e-02	0.0	1.200963e-01	4.856693e-02	0.0	1.289626e-01	5.132984e-02	0.0	1.380833e-01	5.412449e-02	0.0	1.475313e-01	5.670179e-02	0.0	1.572233e-01	5.934563e-02	0.0	1.672578e-01	6.164059e-02	0.0	1.775853e-01	6.378658e-02	0.0	1.881754e-01	6.586245e-02	0.0	1.991385e-01	6.717484e-02	0.0	2.103416e-01	6.851596e-02	0.0	2.218242e-01	6.932291e-02	0.0	2.335701e-01	6.974155e-02	0.0	2.455434e-01	7.014021e-02	0.0	2.577445e-01	7.005323e-02	0.0	2.701596e-01	6.996472e-02	0.0	2.827808e-01	6.984798e-02	0.0	2.955998e-01	6.970586e-02	0.0	3.086077e-01	6.956815e-02	0.0	3.217950e-01	6.970509e-02	0.0	3.351513e-01	6.984379e-02	0.0	3.486654e-01	6.998697e-02	0.0	3.623260e-01	7.013432e-02	0.0	3.761208e-01	7.026880e-02	0.0	3.900348e-01	6.996502e-02	0.0	4.040573e-01	6.965888e-02	0.0	4.181494e-01	6.887090e-02	0.0	4.323015e-01	6.768244e-02	0.0	4.465158e-01	6.644827e-02	0.0	4.607184e-01	6.461198e-02	0.0	4.749582e-01	6.277089e-02	0.0	4.892344e-01	6.104224e-02	0.0	5.035287e-01	5.940010e-02	0.0	5.178222e-01	5.784388e-02	0.0	5.321694e-01	5.728044e-02	0.0	5.464792e-01	5.671847e-02	0.0	5.607258e-01	5.704387e-02	0.0	5.748984e-01	5.795512e-02	0.0	5.889864e-01	5.890818e-02	0.0	6.029505e-01	6.022347e-02	0.0	6.168065e-01	6.152859e-02	0.0	6.305749e-01	6.227485e-02	0.0	6.442307e-01	6.266551e-02	0.0	6.577292e-01	6.283092e-02	0.0	6.709775e-01	6.113077e-02	0.0	6.840582e-01	5.945212e-02	0.0	6.967650e-01	5.680792e-02	0.0	7.091402e-01	5.346122e-02	0.0	7.213243e-01	5.016621e-02	0.0	7.331291e-01	4.632217e-02	0.0	7.447253e-01	4.252691e-02	0.0	7.561627e-01	3.896769e-02	0.0	7.674668e-01	3.574926e-02	0.0	7.785471e-01	3.259456e-02	0.0	7.896424e-01	3.057511e-02	0.0	8.005246e-01	2.870698e-02	0.0	8.112342e-01	2.741405e-02	0.0	8.217419e-01	2.649081e-02	0.0	8.320078e-01	2.568956e-02	0.0	8.420344e-01	2.506495e-02	0.0	8.518049e-01	2.440910e-02	0.0	8.613008e-01	2.349302e-02	0.0	8.705448e-01	2.260126e-02	0.0	8.795048e-01	2.145505e-02	0.0	8.882070e-01	2.026694e-02	0.0	8.966508e-01	1.904128e-02	0.0	9.048275e-01	1.770614e-02	0.0	9.127619e-01	1.641057e-02	0.0	9.204424e-01	1.507016e-02	0.0	9.278835e-01	1.375279e-02	0.0	9.350893e-01	1.246246e-02	0.0	9.420613e-01	1.118784e-02	0.0	9.488080e-01	9.954009e-03	0.0	9.553279e-01	8.730055e-03	0.0	9.616310e-01	7.546800e-03	0.0	9.677176e-01	6.382091e-03	0.0	9.735957e-01	5.253339e-03	0.0	9.792672e-01	4.145501e-03	0.0	9.847390e-01	3.069512e-03	0.0	9.900149e-01	2.019136e-03	0.0	9.950993e-01	9.915551e-04	0.0	1.000000e+00	0.000000e+00	0.0	9.950060e-01	2.381667e-04	0.0	9.898223e-01	4.262922e-04	0.0	9.844448e-01	5.643471e-04	0.0	9.788693e-01	6.599894e-04	0.0	9.730915e-01	7.324388e-04	0.0	9.671064e-01	7.497987e-04	0.0	9.609100e-01	7.450480e-04	0.0	9.544978e-01	6.763972e-04	0.0	9.478655e-01	5.921130e-04	0.0	9.410100e-01	4.129968e-04	0.0	9.339259e-01	2.279041e-04	0.0	9.266125e-01	-6.023611e-05	0.0	9.190637e-01	-3.806815e-04	0.0	9.112770e-01	-7.414855e-04	0.0	9.032503e-01	-1.166232e-03	0.0	8.949786e-01	-1.603946e-03	0.0	8.864599e-01	-2.063292e-03	0.0	8.776919e-01	-2.537318e-03	0.0	8.686718e-01	-2.999548e-03	0.0	8.593978e-01	-3.438841e-03	0.0	8.498710e-01	-3.887742e-03	0.0	8.400896e-01	-4.309214e-03	0.0	8.300559e-01	-4.741562e-03	0.0	8.197814e-01	-5.379589e-03	0.0	8.092600e-01	-6.080951e-03	0.0	7.985194e-01	-7.105232e-03	0.0	7.875557e-01	-8.380843e-03	0.0	7.763811e-01	-9.880010e-03	0.0	7.650446e-01	-1.190820e-02	0.0	7.534793e-01	-1.397733e-02	0.0	7.417629e-01	-1.645243e-02	0.0	7.298425e-01	-1.903340e-02	0.0	7.177154e-01	-2.167027e-02	0.0	7.053918e-01	-2.437336e-02	0.0	6.928750e-01	-2.711883e-02	0.0	6.801252e-01	-2.966971e-02	0.0	6.671829e-01	-3.217405e-02	0.0	6.540626e-01	-3.464072e-02	0.0	6.407266e-01	-3.679565e-02	0.0	6.272463e-01	-3.897391e-02	0.0	6.136267e-01	-4.113085e-02	0.0	5.998830e-01	-4.328125e-02	0.0	5.860373e-01	-4.547936e-02	0.0	5.721455e-01	-4.797530e-02	0.0	5.581741e-01	-5.048556e-02	0.0	5.441977e-01	-5.331214e-02	0.0	5.302155e-01	-5.637673e-02	0.0	5.161962e-01	-5.944671e-02	0.0	5.021393e-01	-6.244924e-02	0.0	4.880751e-01	-6.545334e-02	0.0	4.739305e-01	-6.796204e-02	0.0	4.597219e-01	-6.998202e-02	0.0	4.455496e-01	-7.198694e-02	0.0	4.312880e-01	-7.207671e-02	0.0	4.170931e-01	-7.216605e-02	0.0	4.030314e-01	-7.132658e-02	0.0	3.891107e-01	-6.966598e-02	0.0	3.752994e-01	-6.800572e-02	0.0	3.616677e-01	-6.592615e-02	0.0	3.481687e-01	-6.386682e-02	0.0	3.347604e-01	-6.228449e-02	0.0	3.214569e-01	-6.115801e-02	0.0	3.083215e-01	-6.004577e-02	0.0	2.953340e-01	-6.068039e-02	0.0	2.825350e-01	-6.130807e-02	0.0	2.699615e-01	-6.228247e-02	0.0	2.576230e-01	-6.361649e-02	0.0	2.454970e-01	-6.492752e-02	0.0	2.335407e-01	-6.559760e-02	0.0	2.218084e-01	-6.622227e-02	0.0	2.103364e-01	-6.600515e-02	0.0	1.991397e-01	-6.464386e-02	0.0	1.881828e-01	-6.331171e-02	0.0	1.777949e-01	-6.045243e-02	0.0	1.676954e-01	-5.742074e-02	0.0	1.578928e-01	-5.429356e-02	0.0	1.485275e-01	-5.066661e-02	0.0	1.393978e-01	-4.713090e-02	0.0	1.304663e-01	-4.378761e-02	0.0	1.217363e-01	-4.062725e-02	0.0	1.132436e-01	-3.755279e-02	0.0	1.047739e-01	-3.525724e-02	0.0	9.650710e-02	-3.315045e-02	0.0	8.843855e-02	-3.130107e-02	0.0	8.051698e-02	-2.993856e-02	0.0	7.283459e-02	-2.861720e-02	0.0	6.535407e-02	-2.755727e-02	0.0	5.810432e-02	-2.655096e-02	0.0	5.111037e-02	-2.541426e-02	0.0	4.435312e-02	-2.424446e-02	0.0	3.789177e-02	-2.276373e-02	0.0	3.167629e-02	-2.118621e-02	0.0	2.584798e-02	-1.909000e-02	0.0	2.031865e-02	-1.682436e-02	0.0	1.519661e-02	-1.414971e-02	0.0	1.051722e-02	-1.113557e-02	0.0	6.213958e-03	-7.924518e-03	0.0	2.498373e-03	-4.304979e-03	0.0	
CELLS 198	594
2	28	29	2	29	30	2	30	31	2	31	32	2	32	33	2	33	34	2	34	35	2	35	36	2	36	37	2	37	38	2	38	39	2	39	40	2	40	41	2	41	42	2	42	43	2	43	44	2	44	45	2	45	46	2	46	47	2	47	48	2	48	49	2	49	50	2	50	51	2	51	52	2	52	53	2	53	54	2	54	55	2	55	56	2	56	57	2	57	58	2	58	59	2	59	60	2	60	61	2	61	62	2	62	63	2	63	64	2	64	65	2	65	66	2	66	67	2	67	68	2	68	69	2	69	70	2	70	71	2	71	72	2	72	73	2	73	74	2	74	75	2	75	76	2	76	77	2	77	78	2	78	79	2	79	80	2	80	81	2	81	82	2	82	83	2	83	84	2	84	85	2	85	86	2	86	87	2	87	88	2	88	89	2	89	90	2	90	91	2	91	92	2	92	93	2	93	94	2	94	95	2	95	96	2	96	97	2	97	98	2	98	99	2	99	100	2	100	101	2	101	102	2	102	103	2	103	104	2	104	105	2	105	106	2	106	107	2	107	108	2	108	109	2	109	110	2	110	111	2	111	112	2	112	113	2	113	114	2	114	115	2	115	116	2	116	117	2	117	118	2	118	119	2	119	120	2	120	121	2	121	122	2	122	123	2	123	124	2	124	125	2	125	126	2	126	127	2	127	128	2	128	129	2	129	130	2	130	131	2	131	132	2	132	133	2	133	134	2	134	135	2	135	136	2	136	137	2	137	138	2	138	139	2	139	140	2	140	141	2	141	142	2	142	143	2	143	144	2	144	145	2	145	146	2	146	147	2	147	148	2	148	149	2	149	150	2	150	151	2	151	152	2	152	153	2	153	154	2	154	155	2	155	156	2	156	157	2	157	158	2	158	159	2	159	160	2	160	161	2	161	162	2	162	163	2	0	1	2	1	2	2	2	3	2	3	4	2	4	5	2	5	6	2	6	7	2	7	8	2	8	9	2	9	10	2	10	11	2	11	12	2	12	13	2	13	14	2	14	15	2	15	16	2	16	17	2	17	18	2	18	19	2	19	20	2	20	21	2	21	22	2	22	23	2	23	24	2	24	25	2	25	26	2	26	27	2	27	28	2	163	164	2	164	165	2	165	166	2	166	167	2	167	168	2	168	169	2	169	170	2	170	171	2	171	172	2	172	173	2	173	174	2	174	175	2	175	176	2	176	177	2	177	178	2	178	179	2	179	180	2	180	181	2	181	182	2	182	183	2	183	184	2	184	185	2	185	186	2	186	187	2	187	188	2	188	189	2	189	190	2	190	191	2	191	192	2	192	193	2	193	194	2	194	195	2	195	196	2	196	197	2	197	0	
CELL_TYPES 198
3	3	3	3	3	3	3	3	3	3	3	3	3	3	3	3	3	3	3	3	3	3	3	3	3	3	3	3	3	3	3	3	3	3	3	3	3	3	3	3	3	3	3	3	3	3	3	3	3	3	3	3	3	3	3	3	3	3	3	3	3	3	3	3	3	3	3	3	3	3	3	3	3	3	3	3	3	3	3	3	3	3	3	3	3	3	3	3	3	3	3	3	3	3	3	3	3	3	3	3	3	3	3	3	3	3	3	3	3	3	3	3	3	3	3	3	3	3	3	3	3	3	3	3	3	3	3	3	3	3	3	3	3	3	3	3	3	3	3	3	3	3	3	3	3	3	3	3	3	3	3	3	3	3	3	3	3	3	3	3	3	3	3	3	3	3	3	3	3	3	3	3	3	3	3	3	3	3	3	3	3	3	3	3	3	3	3	3	3	3	3	3	3	3	3	3	3	3	
POINT_DATA 198

SCALARS Density double 1
LOOKUP_TABLE default
1.538695e+00	1.236032e+00	1.187785e+00	1.098946e+00	1.067704e+00	1.057242e+00	1.111817e+00	1.143871e+00	1.177794e+00	1.191476e+00	1.205478e+00	1.214116e+00	1.219617e+00	1.220081e+00	1.213709e+00	1.200892e+00	1.185130e+00	1.167068e+00	1.146729e+00	1.122977e+00	1.097738e+00	1.060383e+00	1.027794e+00	9.888920e-01	9.432414e-01	9.175343e-01	8.547251e-01	8.003424e-01	7.661293e-01	7.142912e-01	6.948152e-01	6.739828e-01	6.539019e-01	6.564324e-01	6.610380e-01	6.657107e-01	6.841219e-01	7.075789e-01	7.163182e-01	7.219779e-01	7.281780e-01	7.127318e-01	6.933662e-01	6.757348e-01	6.426809e-01	6.272757e-01	6.049960e-01	5.796844e-01	5.955442e-01	7.351113e-01	1.081796e+00	1.239496e+00	1.242953e+00	1.231063e+00	1.233405e+00	1.203015e+00	1.171724e+00	1.138149e+00	1.074539e+00	1.010085e+00	9.606057e-01	8.385657e-01	7.539155e-01	7.611058e-01	8.286026e-01	1.016228e+00	1.111771e+00	1.148009e+00	1.195568e+00	1.225768e+00	1.240454e+00	1.263356e+00	1.272247e+00	1.263271e+00	1.265550e+00	1.252772e+00	1.241556e+00	1.231127e+00	1.214995e+00	1.210587e+00	1.208356e+00	1.205982e+00	1.213305e+00	1.216158e+00	1.222214e+00	1.229161e+00	1.233888e+00	1.240931e+00	1.245927e+00	1.251328e+00	1.256390e+00	1.261390e+00	1.266819e+00	1.271998e+00	1.277587e+00	1.283469e+00	1.289726e+00	1.300691e+00	1.297295e+00	1.318148e+00	1.424442e+00	1.376664e+00	1.379425e+00	1.382521e+00	1.381990e+00	1.382574e+00	1.382689e+00	1.383732e+00	1.383243e+00	1.383229e+00	1.383016e+00	1.380264e+00	1.379795e+00	1.377563e+00	1.375215e+00	1.373864e+00	1.372252e+00	1.371139e+00	1.372276e+00	1.373919e+00	1.376785e+00	1.385112e+00	1.389935e+00	1.396085e+00	1.401776e+00	1.400633e+00	1.404834e+00	1.397862e+00	1.390581e+00	1.383864e+00	1.367794e+00	1.355669e+00	1.342656e+00	1.323903e+00	1.309878e+00	1.301358e+00	1.286714e+00	1.281114e+00	1.282309e+00	1.280209e+00	1.281163e+00	1.286171e+00	1.283826e+00	1.279746e+00	1.277174e+00	1.257371e+00	1.232841e+00	1.214632e+00	1.175249e+00	1.012200e+00	8.372757e-01	7.683538e-01	8.215795e-01	9.169298e-01	9.680713e-01	1.067163e+00	1.137123e+00	1.192313e+00	1.259488e+00	1.300912e+00	1.314836e+00	1.355588e+00	1.360730e+00	1.331505e+00	1.320532e+00	1.286385e+00	1.223035e+00	1.167887e+00	1.006310e+00	8.767279e-01	8.985296e-01	9.207053e-01	1.005752e+00	1.142192e+00	1.190960e+00	1.251633e+00	1.320661e+00	1.361474e+00	1.389332e+00	1.427418e+00	1.448663e+00	1.447160e+00	1.460065e+00	1.457071e+00	1.451814e+00	1.447453e+00	1.433002e+00	1.424570e+00	1.413536e+00	1.411291e+00	1.409483e+00	1.422809e+00	1.449174e+00	1.476029e+00	1.525852e+00	1.567581e+00	1.599310e+00	1.662707e+00	
VECTORS Momentum double
2.716630e+01	1.957065e+02	0.0	1.578071e+02	1.920771e+02	0.0	2.114953e+02	1.949082e+02	0.0	2.505120e+02	1.647980e+02	0.0	2.737990e+02	1.427089e+02	0.0	2.816982e+02	1.141500e+02	0.0	2.846287e+02	1.037254e+02	0.0	2.849126e+02	9.301124e+01	0.0	2.862907e+02	9.050811e+01	0.0	2.852818e+02	8.752945e+01	0.0	2.846418e+02	8.659541e+01	0.0	2.835079e+02	8.654737e+01	0.0	2.833640e+02	8.779868e+01	0.0	2.835957e+02	9.042284e+01	0.0	2.855316e+02	9.333566e+01	0.0	2.887094e+02	9.553993e+01	0.0	2.916809e+02	9.687129e+01	0.0	2.951014e+02	9.704212e+01	0.0	2.983662e+02	9.659438e+01	0.0	3.013850e+02	9.521208e+01	0.0	3.052469e+02	9.450307e+01	0.0	3.085660e+02	8.937773e+01	0.0	3.114366e+02	8.498366e+01	0.0	3.142381e+02	7.881251e+01	0.0	3.134291e+02	6.824587e+01	0.0	3.153094e+02	6.461115e+01	0.0	3.104564e+02	5.035010e+01	0.0	3.041651e+02	3.696324e+01	0.0	3.015556e+02	2.878444e+01	0.0	2.914504e+02	1.523830e+01	0.0	2.888555e+02	9.487305e+00	0.0	2.849332e+02	3.611046e+00	0.0	2.798685e+02	-2.085631e+00	0.0	2.810926e+02	-2.609518e+00	0.0	2.826328e+02	-2.983140e+00	0.0	2.835873e+02	-3.277123e+00	0.0	2.878124e+02	-5.344209e-01	0.0	2.931951e+02	3.270950e+00	0.0	2.946737e+02	3.794541e+00	0.0	2.952354e+02	3.265905e+00	0.0	2.971729e+02	3.436341e+00	0.0	2.937455e+02	-1.145939e+00	0.0	2.892874e+02	-6.320657e+00	0.0	2.863085e+02	-1.087367e+01	0.0	2.771564e+02	-1.912364e+01	0.0	2.736856e+02	-2.333368e+01	0.0	2.675479e+02	-2.861059e+01	0.0	2.603969e+02	-3.263163e+01	0.0	2.573822e+02	-3.253638e+01	0.0	2.694348e+02	-3.244641e+01	0.0	2.689086e+02	-2.871228e+01	0.0	2.600307e+02	-1.827693e+01	0.0	2.613922e+02	-1.004541e+01	0.0	2.582644e+02	-2.174225e+00	0.0	2.612345e+02	1.145010e+01	0.0	2.673954e+02	1.766240e+01	0.0	2.735571e+02	2.200172e+01	0.0	2.831794e+02	2.705771e+01	0.0	2.912076e+02	2.212012e+01	0.0	2.955299e+02	1.205665e+01	0.0	3.024222e+02	6.705276e+00	0.0	2.948458e+02	-1.624787e+01	0.0	2.784621e+02	-3.605958e+01	0.0	2.772973e+02	-4.489818e+01	0.0	2.642088e+02	-6.330647e+01	0.0	2.556592e+02	-6.819481e+01	0.0	2.498883e+02	-7.406079e+01	0.0	2.354943e+02	-7.694725e+01	0.0	2.239098e+02	-7.125635e+01	0.0	2.163230e+02	-6.420071e+01	0.0	2.068103e+02	-5.916196e+01	0.0	2.010795e+02	-4.694282e+01	0.0	2.029089e+02	-3.558323e+01	0.0	2.037993e+02	-2.992248e+01	0.0	2.077842e+02	-2.154767e+01	0.0	2.135278e+02	-1.773724e+01	0.0	2.189988e+02	-1.543900e+01	0.0	2.257082e+02	-1.443147e+01	0.0	2.297359e+02	-1.873904e+01	0.0	2.316033e+02	-2.234103e+01	0.0	2.328812e+02	-2.608382e+01	0.0	2.312427e+02	-3.082758e+01	0.0	2.300899e+02	-3.248798e+01	0.0	2.279691e+02	-3.511531e+01	0.0	2.251048e+02	-3.677592e+01	0.0	2.227657e+02	-3.757148e+01	0.0	2.198002e+02	-3.865013e+01	0.0	2.170033e+02	-3.863627e+01	0.0	2.142900e+02	-3.877431e+01	0.0	2.117413e+02	-3.872275e+01	0.0	2.091769e+02	-3.874652e+01	0.0	2.063301e+02	-3.873922e+01	0.0	2.035142e+02	-3.856250e+01	0.0	2.005474e+02	-3.844207e+01	0.0	1.972482e+02	-3.818718e+01	0.0	1.935306e+02	-3.792867e+01	0.0	1.893220e+02	-3.748532e+01	0.0	1.840048e+02	-3.674991e+01	0.0	1.720368e+02	-3.646961e+01	0.0	1.833087e+02	-1.237717e+01	0.0	2.662413e+02	-1.529582e+01	0.0	2.458820e+02	-7.181317e+00	0.0	2.445223e+02	-4.904844e+00	0.0	2.461640e+02	-3.736551e+00	0.0	2.454566e+02	-1.889225e+00	0.0	2.451247e+02	-2.545990e-01	0.0	2.450972e+02	1.427170e+00	0.0	2.449204e+02	2.860103e+00	0.0	2.448203e+02	4.785938e+00	0.0	2.450893e+02	6.398782e+00	0.0	2.450580e+02	8.072981e+00	0.0	2.454366e+02	1.007087e+01	0.0	2.463660e+02	1.091229e+01	0.0	2.469812e+02	1.226855e+01	0.0	2.480891e+02	1.311822e+01	0.0	2.489847e+02	1.329340e+01	0.0	2.494738e+02	1.346691e+01	0.0	2.499189e+02	1.316052e+01	0.0	2.497829e+02	1.230308e+01	0.0	2.488894e+02	1.177638e+01	0.0	2.474763e+02	1.115298e+01	0.0	2.448539e+02	1.048351e+01	0.0	2.414090e+02	1.274347e+01	0.0	2.387156e+02	1.533575e+01	0.0	2.359559e+02	1.907392e+01	0.0	2.341908e+02	2.486345e+01	0.0	2.336767e+02	2.911609e+01	0.0	2.334604e+02	3.656619e+01	0.0	2.366005e+02	4.236096e+01	0.0	2.401270e+02	4.679603e+01	0.0	2.444457e+02	5.232241e+01	0.0	2.509558e+02	5.438412e+01	0.0	2.560333e+02	5.588349e+01	0.0	2.605993e+02	5.726406e+01	0.0	2.666068e+02	5.585262e+01	0.0	2.705694e+02	5.315891e+01	0.0	2.735718e+02	5.213330e+01	0.0	2.773985e+02	4.838544e+01	0.0	2.778678e+02	4.486512e+01	0.0	2.771709e+02	4.439709e+01	0.0	2.774604e+02	4.363729e+01	0.0	2.769603e+02	4.356369e+01	0.0	2.759955e+02	4.675452e+01	0.0	2.764976e+02	4.967033e+01	0.0	2.775891e+02	5.288273e+01	0.0	2.790470e+02	5.887152e+01	0.0	2.845538e+02	6.247860e+01	0.0	2.896657e+02	6.301102e+01	0.0	2.938331e+02	6.188654e+01	0.0	3.002657e+02	5.910065e+01	0.0	3.015038e+02	5.007593e+01	0.0	2.927598e+02	4.138741e+01	0.0	3.119020e+02	2.256949e+01	0.0	3.223150e+02	1.277602e+00	0.0	3.210951e+02	-8.503106e+00	0.0	3.261982e+02	-2.990277e+01	0.0	3.185147e+02	-3.836307e+01	0.0	3.105310e+02	-4.250796e+01	0.0	3.012376e+02	-4.647547e+01	0.0	2.899796e+02	-3.919547e+01	0.0	2.830126e+02	-2.826550e+01	0.0	2.773698e+02	-2.332695e+01	0.0	2.696920e+02	-4.444336e+00	0.0	2.738288e+02	1.370325e+01	0.0	2.823866e+02	1.747313e+01	0.0	2.857039e+02	2.648958e+01	0.0	2.938302e+02	3.193841e+01	0.0	3.070780e+02	2.418882e+01	0.0	3.105130e+02	1.788380e+01	0.0	3.123168e+02	3.849210e+00	0.0	3.287739e+02	-2.328613e+01	0.0	3.206689e+02	-3.837373e+01	0.0	3.253107e+02	-6.429717e+01	0.0	3.208987e+02	-9.297850e+01	0.0	3.083874e+02	-9.558785e+01	0.0	2.975858e+02	-1.054783e+02	0.0	2.841575e+02	-1.106538e+02	0.0	2.712089e+02	-1.031583e+02	0.0	2.619160e+02	-9.669399e+01	0.0	2.524501e+02	-9.181576e+01	0.0	2.458359e+02	-7.802212e+01	0.0	2.454748e+02	-6.439107e+01	0.0	2.454148e+02	-5.961963e+01	0.0	2.450821e+02	-4.920263e+01	0.0	2.487217e+02	-4.282541e+01	0.0	2.513226e+02	-3.929249e+01	0.0	2.557044e+02	-3.572029e+01	0.0	2.603906e+02	-3.924315e+01	0.0	2.621732e+02	-4.386133e+01	0.0	2.620921e+02	-5.245402e+01	0.0	2.579126e+02	-6.205385e+01	0.0	2.491786e+02	-7.627569e+01	0.0	2.319457e+02	-8.919431e+01	0.0	2.090889e+02	-9.627111e+01	0.0	1.736200e+02	-1.003606e+02	0.0	1.278163e+02	-8.786724e+01	0.0	7.137809e+01	-5.835833e+01	0.0	-3.318887e+00	1.370709e+01	0.0	
SCALARS Energy double 1
LOOKUP_TABLE default
3.373073e+05	2.751894e+05	2.675330e+05	2.500069e+05	2.442986e+05	2.417576e+05	2.529015e+05	2.592792e+05	2.663525e+05	2.690612e+05	2.719112e+05	2.736331e+05	2.747953e+05	2.749621e+05	2.738275e+05	2.714280e+05	2.683950e+05	2.649040e+05	2.609334e+05	2.562382e+05	2.513443e+05	2.438591e+05	2.373735e+05	2.296143e+05	2.201360e+05	2.151067e+05	2.018895e+05	1.903206e+05	1.832544e+05	1.719368e+05	1.678519e+05	1.633716e+05	1.589186e+05	1.595513e+05	1.606184e+05	1.616269e+05	1.656570e+05	1.708040e+05	1.726615e+05	1.738180e+05	1.752410e+05	1.718588e+05	1.676147e+05	1.638953e+05	1.565285e+05	1.532143e+05	1.482958e+05	1.426835e+05	1.452950e+05	1.737292e+05	2.442573e+05	2.766297e+05	2.774124e+05	2.747102e+05	2.753967e+05	2.694146e+05	2.632840e+05	2.569771e+05	2.443647e+05	2.314207e+05	2.219259e+05	1.967071e+05	1.784342e+05	1.798652e+05	1.924176e+05	2.302221e+05	2.498282e+05	2.565963e+05	2.658694e+05	2.717553e+05	2.743348e+05	2.787938e+05	2.806658e+05	2.787522e+05	2.793743e+05	2.769125e+05	2.747908e+05	2.729188e+05	2.697317e+05	2.689177e+05	2.685373e+05	2.679773e+05	2.694762e+05	2.699866e+05	2.711313e+05	2.724886e+05	2.733485e+05	2.747023e+05	2.756305e+05	2.766539e+05	2.776077e+05	2.785375e+05	2.795618e+05	2.805296e+05	2.815722e+05	2.826633e+05	2.838168e+05	2.859360e+05	2.847383e+05	2.895131e+05	3.160382e+05	3.048238e+05	3.053380e+05	3.060777e+05	3.059279e+05	3.060348e+05	3.060579e+05	3.062712e+05	3.061638e+05	3.061764e+05	3.061321e+05	3.055706e+05	3.055201e+05	3.050811e+05	3.046420e+05	3.044021e+05	3.040858e+05	3.038721e+05	3.041039e+05	3.044047e+05	3.049385e+05	3.065715e+05	3.074291e+05	3.086115e+05	3.097014e+05	3.093995e+05	3.102926e+05	3.088483e+05	3.074979e+05	3.062844e+05	3.031479e+05	3.009397e+05	2.984767e+05	2.947847e+05	2.921535e+05	2.905604e+05	2.876489e+05	2.866653e+05	2.869086e+05	2.864199e+05	2.866306e+05	2.876510e+05	2.871310e+05	2.863366e+05	2.859009e+05	2.819154e+05	2.771900e+05	2.737416e+05	2.658259e+05	2.327242e+05	1.975105e+05	1.828798e+05	1.951727e+05	2.150320e+05	2.251622e+05	2.457898e+05	2.595278e+05	2.703364e+05	2.836714e+05	2.915197e+05	2.939258e+05	3.021389e+05	3.027271e+05	2.968165e+05	2.950315e+05	2.881095e+05	2.754323e+05	2.648752e+05	2.319624e+05	2.060242e+05	2.121277e+05	2.158484e+05	2.337273e+05	2.616576e+05	2.707764e+05	2.828077e+05	2.964586e+05	3.040851e+05	3.093069e+05	3.167732e+05	3.207184e+05	3.201900e+05	3.228717e+05	3.221081e+05	3.211093e+05	3.202823e+05	3.174076e+05	3.158873e+05	3.136817e+05	3.132858e+05	3.127940e+05	3.153700e+05	3.203568e+05	3.252213e+05	3.346629e+05	3.421395e+05	3.475870e+05	3.605933e+05	
SCALARS Pressure double 1
LOOKUP_TABLE default
1.298486e+05	1.000765e+05	9.308483e+04	8.363898e+04	7.986210e+04	7.922658e+04	8.465205e+04	8.800600e+04	9.123204e+04	9.267712e+04	9.407824e+04	9.497900e+04	9.548676e+04	9.546076e+04	9.466089e+04	9.316916e+04	9.141683e+04	8.942408e+04	8.721971e+04	8.470361e+04	8.193463e+04	7.807870e+04	7.467004e+04	7.061853e+04	6.623702e+04	6.346158e+04	5.760956e+04	5.266760e+04	4.934646e+04	4.492576e+04	4.309767e+04	4.125309e+04	3.960949e+04	3.974498e+04	4.007622e+04	4.048637e+04	4.204600e+04	4.402070e+04	4.481645e+04	4.537834e+04	4.583764e+04	4.453029e+04	4.289495e+04	4.126136e+04	3.859282e+04	3.722988e+04	3.538414e+04	3.331172e+04	3.551539e+04	4.945447e+04	8.418168e+04	9.968775e+04	9.995458e+04	9.904707e+04	9.907154e+04	9.582713e+04	9.245774e+04	8.857079e+04	8.187096e+04	7.524632e+04	6.971902e+04	5.788588e+04	5.045849e+04	5.121055e+04	5.915053e+04	7.831002e+04	8.771130e+04	9.194548e+04	9.711147e+04	1.003943e+05	1.022736e+05	1.047678e+05	1.055950e+05	1.047835e+05	1.048533e+05	1.034358e+05	1.021521e+05	1.008577e+05	9.914702e+04	9.862279e+04	9.832587e+04	9.816531e+04	9.888970e+04	9.924530e+04	9.993935e+04	1.006912e+05	1.012664e+05	1.020508e+05	1.026396e+05	1.032560e+05	1.038389e+05	1.044270e+05	1.050510e+05	1.056557e+05	1.063099e+05	1.070048e+05	1.077506e+05	1.089606e+05	1.091274e+05	1.106836e+05	1.164299e+05	1.131388e+05	1.134627e+05	1.136629e+05	1.136515e+05	1.137220e+05	1.137336e+05	1.138371e+05	1.137961e+05	1.137794e+05	1.137590e+05	1.134849e+05	1.133929e+05	1.131544e+05	1.128807e+05	1.127104e+05	1.125371e+05	1.124130e+05	1.125263e+05	1.127243e+05	1.130606e+05	1.139559e+05	1.145625e+05	1.152473e+05	1.158851e+05	1.158400e+05	1.162225e+05	1.155499e+05	1.146898e+05	1.138639e+05	1.121216e+05	1.106484e+05	1.091608e+05	1.071592e+05	1.055323e+05	1.045389e+05	1.030042e+05	1.022876e+05	1.024071e+05	1.022583e+05	1.023371e+05	1.028373e+05	1.026452e+05	1.022012e+05	1.018558e+05	9.982917e+04	9.710708e+04	9.502697e+04	9.098590e+04	7.458494e+04	5.669084e+04	5.039646e+04	5.426318e+04	6.335271e+04	6.874941e+04	7.820663e+04	8.570869e+04	9.165626e+04	9.871589e+04	1.034441e+05	1.052654e+05	1.094246e+05	1.103975e+05	1.074356e+05	1.058891e+05	1.024439e+05	9.588775e+04	8.970158e+04	7.355863e+04	6.015498e+04	6.067058e+04	6.368258e+04	7.162446e+04	8.511799e+04	9.080539e+04	9.719461e+04	1.045011e+05	1.092657e+05	1.125016e+05	1.165985e+05	1.191033e+05	1.191752e+05	1.204117e+05	1.202663e+05	1.196690e+05	1.191721e+05	1.176594e+05	1.166196e+05	1.154753e+05	1.151897e+05	1.151325e+05	1.166024e+05	1.196200e+05	1.229089e+05	1.285939e+05	1.337864e+05	1.379718e+05	1.442134e+05	
SCALARS Temperature double 1
LOOKUP_TABLE default
2.939782e+02	2.820544e+02	2.730055e+02	2.651323e+02	2.605674e+02	2.610520e+02	2.652372e+02	2.680191e+02	2.698412e+02	2.709678e+02	2.718694e+02	2.725195e+02	2.727408e+02	2.725629e+02	2.716980e+02	2.702704e+02	2.687141e+02	2.669246e+02	2.649623e+02	2.627612e+02	2.600155e+02	2.565076e+02	2.530876e+02	2.487712e+02	2.446292e+02	2.409455e+02	2.348002e+02	2.292440e+02	2.243801e+02	2.191041e+02	2.160801e+02	2.132250e+02	2.110168e+02	2.109224e+02	2.111984e+02	2.118623e+02	2.141024e+02	2.167267e+02	2.179525e+02	2.189551e+02	2.192881e+02	2.176505e+02	2.155132e+02	2.127147e+02	2.091903e+02	2.067586e+02	2.037448e+02	2.001870e+02	2.077461e+02	2.343596e+02	2.710831e+02	2.801735e+02	2.801422e+02	2.802797e+02	2.798167e+02	2.774903e+02	2.748832e+02	2.710953e+02	2.654227e+02	2.595122e+02	2.528346e+02	2.404728e+02	2.331535e+02	2.343930e+02	2.486810e+02	2.684458e+02	2.748341e+02	2.790071e+02	2.829609e+02	2.853193e+02	2.872191e+02	2.888899e+02	2.891360e+02	2.889527e+02	2.886246e+02	2.876267e+02	2.866231e+02	2.853886e+02	2.842730e+02	2.837996e+02	2.834675e+02	2.835616e+02	2.839300e+02	2.842826e+02	2.848522e+02	2.853731e+02	2.859038e+02	2.864832e+02	2.869807e+02	2.874580e+02	2.879161e+02	2.883992e+02	2.888792e+02	2.893589e+02	2.898769e+02	2.904343e+02	2.910401e+02	2.918272e+02	2.930390e+02	2.925159e+02	2.847410e+02	2.862950e+02	2.865401e+02	2.864030e+02	2.864842e+02	2.865407e+02	2.865463e+02	2.865908e+02	2.865887e+02	2.865494e+02	2.865423e+02	2.864219e+02	2.862871e+02	2.861477e+02	2.859429e+02	2.857923e+02	2.856881e+02	2.856047e+02	2.856558e+02	2.858162e+02	2.860721e+02	2.866039e+02	2.871299e+02	2.875738e+02	2.879914e+02	2.881142e+02	2.882010e+02	2.879623e+02	2.873154e+02	2.866310e+02	2.855610e+02	2.843295e+02	2.832254e+02	2.819704e+02	2.806629e+02	2.798409e+02	2.788708e+02	2.781415e+02	2.782068e+02	2.782582e+02	2.782654e+02	2.785367e+02	2.785243e+02	2.782034e+02	2.778217e+02	2.765822e+02	2.743937e+02	2.725415e+02	2.696960e+02	2.566938e+02	2.358711e+02	2.284910e+02	2.300837e+02	2.406908e+02	2.473956e+02	2.552954e+02	2.625717e+02	2.677947e+02	2.730381e+02	2.770054e+02	2.788972e+02	2.812016e+02	2.826298e+02	2.810837e+02	2.793396e+02	2.774247e+02	2.731206e+02	2.675651e+02	2.546433e+02	2.390216e+02	2.352210e+02	2.409519e+02	2.480851e+02	2.596047e+02	2.656102e+02	2.705176e+02	2.756512e+02	2.795791e+02	2.820869e+02	2.845589e+02	2.864092e+02	2.868798e+02	2.872942e+02	2.875369e+02	2.871449e+02	2.868141e+02	2.860290e+02	2.851794e+02	2.845853e+02	2.843331e+02	2.845563e+02	2.854901e+02	2.875502e+02	2.900807e+02	2.935879e+02	2.973119e+02	3.005302e+02	3.021483e+02	
SCALARS Mach double 1
LOOKUP_TABLE default
3.735860e-01	5.973619e-01	7.310238e-01	8.359082e-01	8.936324e-01	8.875894e-01	8.345583e-01	7.983496e-01	7.741414e-01	7.589568e-01	7.466752e-01	7.377434e-01	7.346885e-01	7.371452e-01	7.490187e-01	7.683767e-01	7.891652e-01	8.126973e-01	8.380919e-01	8.661209e-01	9.004916e-01	9.435851e-01	9.848609e-01	1.036115e+00	1.084606e+00	1.127296e+00	1.197881e+00	1.261302e+00	1.316721e+00	1.376918e+00	1.411527e+00	1.444313e+00	1.469759e+00	1.470849e+00	1.467662e+00	1.460005e+00	1.434224e+00	1.404118e+00	1.390086e+00	1.378621e+00	1.374815e+00	1.393541e+00	1.418028e+00	1.450185e+00	1.490875e+00	1.519097e+00	1.554268e+00	1.596104e+00	1.507620e+00	1.202920e+00	7.573920e-01	6.267398e-01	6.272209e-01	6.251077e-01	6.322022e-01	6.670455e-01	7.046926e-01	7.572274e-01	8.321699e-01	9.067280e-01	9.878890e-01	1.132751e+00	1.216704e+00	1.202538e+00	1.037177e+00	7.927176e-01	7.053889e-01	6.444750e-01	5.828200e-01	5.436389e-01	5.104070e-01	4.796786e-01	4.750148e-01	4.784926e-01	4.846636e-01	5.030510e-01	5.210119e-01	5.424547e-01	5.612778e-01	5.691221e-01	5.745743e-01	5.730334e-01	5.669693e-01	5.611177e-01	5.515675e-01	5.427188e-01	5.335881e-01	5.234764e-01	5.146708e-01	5.061064e-01	4.977749e-01	4.888667e-01	4.798804e-01	4.707595e-01	4.607410e-01	4.497547e-01	4.375510e-01	4.212470e-01	3.950174e-01	4.065210e-01	5.534423e-01	5.267785e-01	5.224757e-01	5.248864e-01	5.234601e-01	5.224645e-01	5.223660e-01	5.215819e-01	5.216191e-01	5.223112e-01	5.224369e-01	5.245543e-01	5.269167e-01	5.293508e-01	5.329111e-01	5.355164e-01	5.373139e-01	5.387501e-01	5.378698e-01	5.351046e-01	5.306664e-01	5.213505e-01	5.120062e-01	5.040105e-01	4.963957e-01	4.941378e-01	4.925372e-01	4.969299e-01	5.086776e-01	5.208723e-01	5.394993e-01	5.603373e-01	5.785256e-01	5.986959e-01	6.191930e-01	6.318321e-01	6.465244e-01	6.574196e-01	6.564496e-01	6.556849e-01	6.555776e-01	6.515322e-01	6.517175e-01	6.564992e-01	6.621582e-01	6.803135e-01	7.116155e-01	7.374404e-01	7.760860e-01	9.413187e-01	1.185624e+00	1.269883e+00	1.251730e+00	1.130236e+00	1.052286e+00	9.582911e-01	8.685140e-01	8.013016e-01	7.305716e-01	6.741521e-01	6.461279e-01	6.108074e-01	5.881627e-01	6.126503e-01	6.394547e-01	6.680090e-01	7.294272e-01	8.043173e-01	9.661670e-01	1.149466e+00	1.193066e+00	1.127223e+00	1.044190e+00	9.055838e-01	8.297521e-01	7.650450e-01	6.937410e-01	6.358211e-01	5.968440e-01	5.565006e-01	5.247777e-01	5.164658e-01	5.090587e-01	5.046793e-01	5.117377e-01	5.176330e-01	5.314154e-01	5.460225e-01	5.560586e-01	5.602770e-01	5.565443e-01	5.407162e-01	5.044380e-01	4.567500e-01	3.826220e-01	2.862474e-01	1.658813e-01	2.434120e-02	
SCALARS Pressure_Coefficient double 1
LOOKUP_TABLE default