# vtk DataFile Version 3.0
vtk output
ASCII
DATASET UNSTRUCTURED_GRID
POINTS 1837 double
1.000000e+02	0.000000e+00	0.0	9.917900e+01	1.278772e+01	0.0	9.672949e+01	2.536546e+01	0.0	9.269168e+01	3.752670e+01	0.0	8.713187e+01	4.907176e+01	0.0	8.014136e+01	5.981105e+01	0.0	7.183494e+01	6.956826e+01	0.0	6.234898e+01	7.818315e+01	0.0	5.183926e+01	8.551428e+01	0.0	4.047833e+01	9.144126e+01	0.0	2.845276e+01	9.586679e+01	0.0	1.595999e+01	9.871818e+01	0.0	3.205158e+00	9.994862e+01	0.0	-9.602303e+00	9.953791e+01	0.0	-2.225209e+01	9.749279e+01	0.0	-3.453651e+01	9.384684e+01	0.0	-4.625383e+01	8.865993e+01	0.0	-5.721167e+01	8.201723e+01	0.0	-6.723009e+01	7.402780e+01	0.0	-7.614460e+01	6.482284e+01	0.0	-8.380881e+01	5.455349e+01	0.0	-9.009689e+01	4.338837e+01	0.0	-9.490557e+01	3.151082e+01	0.0	-9.815592e+01	1.911586e+01	0.0	-9.979454e+01	6.407022e+00	0.0	-9.979454e+01	-6.407022e+00	0.0	-9.815592e+01	-1.911586e+01	0.0	-9.490557e+01	-3.151082e+01	0.0	-9.009689e+01	-4.338837e+01	0.0	-8.380881e+01	-5.455349e+01	0.0	-7.614460e+01	-6.482284e+01	0.0	-6.723009e+01	-7.402780e+01	0.0	-5.721167e+01	-8.201723e+01	0.0	-4.625383e+01	-8.865993e+01	0.0	-3.453651e+01	-9.384684e+01	0.0	-2.225209e+01	-9.749279e+01	0.0	-9.602303e+00	-9.953791e+01	0.0	3.205158e+00	-9.994862e+01	0.0	1.595999e+01	-9.871818e+01	0.0	2.845276e+01	-9.586679e+01	0.0	4.047833e+01	-9.144126e+01	0.0	5.183926e+01	-8.551428e+01	0.0	6.234898e+01	-7.818315e+01	0.0	7.183494e+01	-6.956826e+01	0.0	8.014136e+01	-5.981105e+01	0.0	8.713187e+01	-4.907176e+01	0.0	9.269168e+01	-3.752670e+01	0.0	9.672949e+01	-2.536546e+01	0.0	9.917900e+01	-1.278772e+01	0.0	0.000000e+00	0.000000e+00	0.0	3.097674e-03	3.924846e-03	0.0	6.317759e-03	7.989520e-03	0.0	1.072512e-02	1.107306e-02	0.0	1.531428e-02	1.423392e-02	0.0	2.055355e-02	1.666912e-02	0.0	2.599395e-02	1.915780e-02	0.0	3.182134e-02	2.126094e-02	0.0	3.786523e-02	2.339688e-02	0.0	4.420294e-02	2.534813e-02	0.0	5.077273e-02	2.730500e-02	0.0	5.760630e-02	2.917296e-02	0.0	6.468134e-02	3.103652e-02	0.0	7.200135e-02	3.289655e-02	0.0	7.957290e-02	3.473628e-02	0.0	8.739163e-02	3.658344e-02	0.0	9.548451e-02	3.833062e-02	0.0	1.038411e-01	4.002115e-02	0.0	1.124696e-01	4.162317e-02	0.0	1.213681e-01	4.313501e-02	0.0	1.305365e-01	4.456220e-02	0.0	1.399704e-01	4.591206e-02	0.0	1.496876e-01	4.705412e-02	0.0	1.596552e-01	4.822561e-02	0.0	1.699158e-01	4.895514e-02	0.0	1.804291e-01	4.966153e-02	0.0	1.911992e-01	5.010854e-02	0.0	2.022280e-01	5.016227e-02	0.0	2.134979e-01	5.021718e-02	0.0	2.249963e-01	4.981340e-02	0.0	2.367251e-01	4.932712e-02	0.0	2.486815e-01	4.886301e-02	0.0	2.608606e-01	4.845950e-02	0.0	2.732529e-01	4.804891e-02	0.0	2.858527e-01	4.821962e-02	0.0	2.986503e-01	4.856095e-02	0.0	3.116138e-01	4.921573e-02	0.0	3.246892e-01	5.078541e-02	0.0	3.379319e-01	5.237517e-02	0.0	3.512440e-01	5.456238e-02	0.0	3.646670e-01	5.699241e-02	0.0	3.782161e-01	5.947666e-02	0.0	3.918596e-01	6.211568e-02	0.0	4.056093e-01	6.477525e-02	0.0	4.195027e-01	6.716573e-02	0.0	4.335030e-01	6.941610e-02	0.0	4.475845e-01	7.155720e-02	0.0	4.618144e-01	7.295732e-02	0.0	4.760814e-01	7.436110e-02	0.0	4.904138e-01	7.503827e-02	0.0	5.047769e-01	7.532031e-02	0.0	5.191259e-01	7.536870e-02	0.0	5.334206e-01	7.428137e-02	0.0	5.476780e-01	7.319687e-02	0.0	5.617722e-01	7.121402e-02	0.0	5.757493e-01	6.882352e-02	0.0	5.896311e-01	6.636439e-02	0.0	6.033389e-01	6.349678e-02	0.0	6.169408e-01	6.065132e-02	0.0	6.304719e-01	5.807776e-02	0.0	6.439016e-01	5.568467e-02	0.0	6.571983e-01	5.339985e-02	0.0	6.704918e-01	5.231493e-02	0.0	6.836176e-01	5.124370e-02	0.0	6.965882e-01	5.074892e-02	0.0	7.093904e-01	5.074180e-02	0.0	7.219952e-01	5.073817e-02	0.0	7.343937e-01	5.085951e-02	0.0	7.465789e-01	5.097875e-02	0.0	7.585302e-01	5.059832e-02	0.0	7.702447e-01	4.984216e-02	0.0	7.816915e-01	4.882220e-02	0.0	7.927499e-01	4.664871e-02	0.0	8.035719e-01	4.452170e-02	0.0	8.139537e-01	4.161764e-02	0.0	8.240734e-01	3.868180e-02	0.0	8.339150e-01	3.568789e-02	0.0	8.434907e-01	3.268262e-02	0.0	8.528561e-01	2.985721e-02	0.0	8.620648e-01	2.739817e-02	0.0	8.710296e-01	2.500429e-02	0.0	8.798351e-01	2.302391e-02	0.0	8.884122e-01	2.116559e-02	0.0	8.967619e-01	1.944131e-02	0.0	9.049006e-01	1.792160e-02	0.0	9.127984e-01	1.644686e-02	0.0	9.204678e-01	1.507070e-02	0.0	9.279037e-01	1.374822e-02	0.0	9.351055e-01	1.245674e-02	0.0	9.420752e-01	1.118802e-02	0.0	9.488200e-01	9.959784e-03	0.0	9.553386e-01	8.742180e-03	0.0	9.616407e-01	7.565009e-03	0.0	9.677264e-01	6.404931e-03	0.0	9.736039e-01	5.280434e-03	0.0	9.792743e-01	4.172899e-03	0.0	9.847450e-01	3.095470e-03	0.0	9.900195e-01	2.040471e-03	0.0	9.951019e-01	1.004299e-03	0.0	1.000000e+00	0.000000e+00	0.0	9.950057e-01	2.360706e-04	0.0	9.898227e-01	4.328344e-04	0.0	9.844463e-01	5.779596e-04	0.0	9.788722e-01	6.785270e-04	0.0	9.730963e-01	7.547737e-04	0.0	9.671137e-01	7.732014e-04	0.0	9.609203e-01	7.691572e-04	0.0	9.545118e-01	6.996201e-04	0.0	9.478837e-01	6.145887e-04	0.0	9.410333e-01	4.336640e-04	0.0	9.339548e-01	2.467172e-04	0.0	9.266481e-01	-4.725485e-05	0.0	9.191069e-01	-3.752805e-04	0.0	9.113308e-01	-7.814778e-04	0.0	9.033201e-01	-1.321834e-03	0.0	8.950653e-01	-1.878647e-03	0.0	8.865863e-01	-2.710240e-03	0.0	8.778632e-01	-3.607097e-03	0.0	8.689125e-01	-4.698323e-03	0.0	8.597455e-01	-6.081355e-03	0.0	8.503303e-01	-7.507175e-03	0.0	8.407604e-01	-9.497187e-03	0.0	8.309442e-01	-1.153841e-02	0.0	8.209580e-01	-1.395588e-02	0.0	8.107609e-01	-1.656529e-02	0.0	8.003613e-01	-1.937001e-02	0.0	7.897776e-01	-2.242648e-02	0.0	7.789654e-01	-2.555813e-02	0.0	7.679700e-01	-2.890304e-02	0.0	7.567533e-01	-3.231530e-02	0.0	7.452854e-01	-3.567372e-02	0.0	7.335796e-01	-3.900206e-02	0.0	7.216693e-01	-4.238858e-02	0.0	7.093887e-01	-4.515133e-02	0.0	6.969161e-01	-4.795717e-02	0.0	6.841718e-01	-5.030494e-02	0.0	6.711311e-01	-5.199877e-02	0.0	6.579238e-01	-5.371423e-02	0.0	6.444671e-01	-5.426706e-02	0.0	6.308522e-01	-5.466309e-02	0.0	6.171041e-01	-5.476129e-02	0.0	6.032355e-01	-5.434028e-02	0.0	5.892592e-01	-5.391601e-02	0.0	5.751964e-01	-5.328527e-02	0.0	5.610543e-01	-5.261986e-02	0.0	5.468420e-01	-5.206174e-02	0.0	5.325711e-01	-5.168584e-02	0.0	5.182630e-01	-5.130895e-02	0.0	5.039291e-01	-5.142532e-02	0.0	4.895872e-01	-5.160278e-02	0.0	4.752641e-01	-5.207652e-02	0.0	4.609794e-01	-5.297830e-02	0.0	4.467319e-01	-5.387772e-02	0.0	4.326120e-01	-5.557877e-02	0.0	4.185643e-01	-5.733981e-02	0.0	4.046278e-01	-5.930779e-02	0.0	3.908282e-01	-6.156391e-02	0.0	3.771350e-01	-6.380263e-02	0.0	3.635153e-01	-6.571775e-02	0.0	3.500223e-01	-6.757818e-02	0.0	3.366314e-01	-6.895241e-02	0.0	3.233252e-01	-6.951858e-02	0.0	3.101868e-01	-7.007761e-02	0.0	2.972728e-01	-6.904077e-02	0.0	2.845535e-01	-6.775294e-02	0.0	2.720917e-01	-6.608179e-02	0.0	2.599627e-01	-6.358903e-02	0.0	2.480422e-01	-6.113909e-02	0.0	2.364131e-01	-5.839574e-02	0.0	2.250315e-01	-5.558200e-02	0.0	2.138680e-01	-5.285172e-02	0.0	2.028805e-01	-5.040507e-02	0.0	1.921275e-01	-4.801068e-02	0.0	1.815671e-01	-4.589808e-02	0.0	1.712014e-01	-4.406941e-02	0.0	1.610810e-01	-4.228400e-02	0.0	1.511616e-01	-4.082758e-02	0.0	1.414857e-01	-3.944147e-02	0.0	1.320526e-01	-3.814074e-02	0.0	1.228550e-01	-3.697864e-02	0.0	1.139068e-01	-3.584804e-02	0.0	1.052068e-01	-3.474933e-02	0.0	9.675360e-02	-3.368194e-02	0.0	8.854984e-02	-3.261129e-02	0.0	8.059932e-02	-3.149158e-02	0.0	7.288826e-02	-3.040559e-02	0.0	6.545011e-02	-2.912275e-02	0.0	5.824770e-02	-2.785677e-02	0.0	5.133402e-02	-2.634119e-02	0.0	4.467182e-02	-2.473623e-02	0.0	3.832267e-02	-2.284900e-02	0.0	3.223487e-02	-2.084572e-02	0.0	2.651065e-02	-1.849028e-02	0.0	2.104550e-02	-1.606252e-02	0.0	1.595163e-02	-1.333857e-02	0.0	1.116715e-02	-1.048694e-02	0.0	6.684605e-03	-7.519305e-03	0.0	2.766489e-03	-4.120683e-03	0.0	6.816828e-02	-3.521109e-02	0.0	6.237900e-02	-3.345553e-02	0.0	8.436776e+01	2.958891e+01	0.0	8.103163e+01	2.060961e+01	0.0	8.893089e+01	1.820501e+01	0.0	7.547756e+01	-1.256069e+01	0.0	7.645733e+01	-2.543402e+01	0.0	8.712076e+01	-1.793732e+01	0.0	8.658986e+01	-4.295822e+00	0.0	4.329539e+01	2.196286e+01	0.0	3.595797e+01	2.935501e+01	0.0	3.267077e+01	1.898969e+01	0.0	7.333501e+01	2.564059e+01	0.0	7.301887e+01	-3.549044e+01	0.0	7.640679e+01	-4.277784e+01	0.0	8.220297e+01	-3.634259e+01	0.0	8.736425e+01	-2.816230e+01	0.0	5.311775e+01	3.376768e+01	0.0	5.597878e+01	4.151226e+01	0.0	4.802022e+01	3.878986e+01	0.0	5.645390e+01	-6.339385e+01	0.0	5.500546e+01	-5.284874e+01	0.0	4.828902e+01	-6.407793e+01	0.0	6.943180e+01	5.930873e+01	0.0	7.405417e+01	4.901056e+01	0.0	6.065632e+01	6.558961e+01	0.0	4.550241e+01	-7.378513e+01	0.0	5.440123e+01	-7.207943e+01	0.0	6.512601e+01	-4.256132e+01	0.0	4.915017e+01	7.177741e+01	0.0	2.667637e+01	6.790839e+01	0.0	2.949345e+01	5.680064e+01	0.0	3.617582e+01	6.917662e+01	0.0	6.275568e+01	-6.713170e+01	0.0	3.058389e+01	8.612470e+01	0.0	3.978552e+01	8.042078e+01	0.0	3.663691e+01	-6.710670e+01	0.0	2.669327e+01	-7.545301e+01	0.0	3.832691e+01	-8.002460e+01	0.0	6.500918e+00	4.633049e+01	0.0	-4.257808e+00	4.384385e+01	0.0	3.169609e+00	3.776553e+01	0.0	8.269290e-01	-2.140993e-02	0.0	4.342782e-01	7.792958e-02	0.0	4.246589e-01	7.567528e-02	0.0	4.123531e-01	9.465345e-02	0.0	4.250574e-01	8.553513e-02	0.0	4.280098e-01	9.909807e-02	0.0	4.272555e-01	-6.632866e-02	0.0	4.364145e-01	-7.490075e-02	0.0	4.383087e-01	-6.393100e-02	0.0	9.388124e-01	1.710514e-02	0.0	9.442870e-01	1.514888e-02	0.0	9.074418e-01	2.567504e-02	0.0	9.018127e-01	2.960654e-02	0.0	9.013179e-01	2.347525e-02	0.0	9.463438e-01	5.095000e-02	0.0	9.456278e-01	7.201220e-02	0.0	9.310784e-01	5.573657e-02	0.0	1.391203e-01	-5.329233e-02	0.0	1.452544e-01	-4.712036e-02	0.0	1.376254e-01	-4.571847e-02	0.0	8.967458e-01	-1.214139e-02	0.0	8.915101e-01	-7.665944e-03	0.0	8.895805e-01	-1.393079e-02	0.0	8.346292e-01	-2.938374e-02	0.0	8.370805e-01	-1.845066e-02	0.0	7.468306e-01	-4.664954e-02	0.0	7.566562e-01	-4.852262e-02	0.0	7.535799e-01	-4.033510e-02	0.0	3.548961e-01	7.281654e-02	0.0	3.457763e-01	6.366338e-02	0.0	3.568731e-01	6.317854e-02	0.0	4.136225e-01	2.891987e-01	0.0	3.214066e-01	4.062772e-01	0.0	3.042446e-01	3.003397e-01	0.0	9.292595e-01	2.562993e-02	0.0	9.227246e-01	2.54525
[...]
POINT_DATA 1837

SCALARS Density double 1
LOOKUP_TABLE default
1.291630e+00	1.291694e+00	1.292045e+00	1.292184e+00	1.292126e+00	1.292054e+00	1.292017e+00	1.291973e+00	1.291915e+00	1.291861e+00	1.291817e+00	1.291797e+00	1.291806e+00	1.291855e+00	1.291936e+00	1.292016e+00	1.292089e+00	1.292145e+00	1.292189e+00	1.292220e+00	1.292245e+00	1.292262e+00	1.292275e+00	1.292286e+00	1.292296e+00	1.292306e+00	1.292316e+00	1.292329e+00	1.292344e+00	1.292363e+00	1.292389e+00	1.292422e+00	1.292464e+00	1.292519e+00	1.292581e+00	1.292652e+00	1.292729e+00	1.292783e+00	1.292793e+00	1.292768e+00	1.292718e+00	1.292653e+00	1.292587e+00	1.292519e+00	1.292448e+00	1.292404e+00	1.292431e+00	1.292317e+00	1.291960e+00	1.565944e+00	1.239269e+00	1.217659e+00	1.086150e+00	1.044836e+00	1.001359e+00	1.000468e+00	9.993145e-01	1.014858e+00	1.019253e+00	1.028412e+00	1.032939e+00	1.040470e+00	1.036810e+00	1.025656e+00	1.004076e+00	9.785257e-01	9.580017e-01	9.384544e-01	9.233340e-01	9.105201e-01	8.916265e-01	8.788523e-01	8.494662e-01	8.198721e-01	8.032841e-01	7.598454e-01	7.333740e-01	7.283657e-01	8.588205e-01	1.128020e+00	1.226359e+00	1.243120e+00	1.265379e+00	1.280642e+00	1.283749e+00	1.299070e+00	1.286561e+00	1.271201e+00	1.260198e+00	1.228503e+00	1.200916e+00	1.171329e+00	1.128366e+00	1.087787e+00	1.052599e+00	9.947200e-01	9.464262e-01	9.050292e-01	8.501093e-01	8.186422e-01	7.570192e-01	7.010753e-01	6.643047e-01	6.088508e-01	5.847061e-01	5.669470e-01	5.484447e-01	5.768092e-01	7.195799e-01	1.060688e+00	1.208085e+00	1.199523e+00	1.187056e+00	1.188232e+00	1.167171e+00	1.138328e+00	1.114166e+00	1.072801e+00	1.035145e+00	1.018391e+00	9.943764e-01	1.016120e+00	1.063722e+00	1.098604e+00	1.146961e+00	1.174379e+00	1.200688e+00	1.224216e+00	1.234336e+00	1.243091e+00	1.251603e+00	1.249749e+00	1.254307e+00	1.254829e+00	1.254657e+00	1.256922e+00	1.257543e+00	1.259317e+00	1.262252e+00	1.265045e+00	1.268278e+00	1.271926e+00	1.275751e+00	1.280059e+00	1.285040e+00	1.290723e+00	1.298534e+00	1.296236e+00	1.323325e+00	1.430225e+00	1.394922e+00	1.392380e+00	1.399308e+00	1.398371e+00	1.400940e+00	1.402244e+00	1.404656e+00	1.405685e+00	1.407587e+00	1.409902e+00	1.410575e+00	1.414927e+00	1.414546e+00	1.419527e+00	1.421894e+00	1.420770e+00	1.425973e+00	1.421155e+00	1.425686e+00	1.422207e+00	1.414165e+00	1.409497e+00	1.396837e+00	1.387917e+00	1.371848e+00	1.356477e+00	1.338953e+00	1.311914e+00	1.285169e+00	1.260576e+00	1.212364e+00	1.177543e+00	1.142764e+00	1.081929e+00	1.044100e+00	1.001881e+00	1.009681e+00	1.060822e+00	1.086238e+00	1.128697e+00	1.168859e+00	1.198367e+00	1.232202e+00	1.258607e+00	1.274239e+00	1.294999e+00	1.307240e+00	1.311555e+00	1.323126e+00	1.319327e+00	1.326775e+00	1.323814e+00	1.304603e+00	1.295766e+00	1.271672e+00	1.235785e+00	1.214569e+00	1.104784e+00	8.826974e-01	8.111138e-01	8.009378e-01	8.662147e-01	9.778630e-01	1.014883e+00	1.086488e+00	1.157782e+00	1.199789e+00	1.250096e+00	1.293483e+00	1.318621e+00	1.339051e+00	1.359371e+00	1.364052e+00	1.373048e+00	1.377808e+00	1.374185e+00	1.376976e+00	1.375327e+00	1.372003e+00	1.371081e+00	1.369038e+00	1.365628e+00	1.365968e+00	1.360712e+00	1.360568e+00	1.360512e+00	1.362105e+00	1.368783e+00	1.381280e+00	1.398549e+00	1.424695e+00	1.458155e+00	1.491143e+00	1.531511e+00	1.568752e+00	1.596520e+00	1.692059e+00	1.368610e+00	1.370075e+00	1.292115e+00	1.292026e+00	1.291949e+00	1.292130e+00	1.292330e+00	1.292187e+00	1.291876e+00	1.292005e+00	1.291852e+00	1.291964e+00	1.292059e+00	1.292421e+00	1.292402e+00	1.292386e+00	1.292344e+00	1.291993e+00	1.291972e+00	1.291940e+00	1.292572e+00	1.292540e+00	1.292630e+00	1.292014e+00	1.292050e+00	1.291971e+00	1.292669e+00	1.292610e+00	1.292437e+00	1.291903e+00	1.291727e+00	1.291726e+00	1.291810e+00	1.292551e+00	1.291807e+00	1.291849e+00	1.292727e+00	1.292800e+00	1.292724e+00	1.291291e+00	1.291270e+00	1.291051e+00	1.399686e+00	1.057314e+00	1.081896e+00	1.130592e+00	1.091120e+00	1.093548e+00	1.298617e+00	1.302804e+00	1.309491e+00	1.263113e+00	1.264883e+00	1.256224e+00	1.255177e+00	1.254669e+00	1.276199e+00	1.278265e+00	1.270078e+00	1.371615e+00	1.373604e+00	1.374151e+00	1.418339e+00	1.420154e+00	1.419496e+00	1.401519e+00	1.409025e+00	1.262872e+00	1.286173e+00	1.279593e+00	1.245494e+00	1.261272e+00	1.245324e+00	1.140487e+00	1.152751e+00	1.154730e+00	1.262607e+00	1.260228e+00	1.259270e+00	1.255848e+00	1.257824e+00	1.420188e+00	1.421193e+00	1.409894e+00	1.046548e+00	1.265119e+00	1.282695e+00	1.274540e+00	1.001344e+00	9.665809e-01	9.389206e-01	1.286532e+00	1.290523e+00	9.198961e-01	8.254774e-01	8.530853e-01	1.248432e+00	1.202633e+00	1.254850e+00	8.846951e-01	8.891530e-01	1.275054e+00	1.261735e+00	1.270851e+00	7.604758e-01	1.256703e+00	1.271768e+00	6.761188e-01	6.224532e-01	6.050225e-01	6.657307e-01	1.248654e+00	1.251475e+00	8.942776e-01	1.102906e+00	1.083284e+00	1.016987e+00	8.523461e-01	7.683682e-01	8.620295e-01	1.103990e+00	1.081674e+00	1.114830e+00	1.048366e+00	1.406934e+00	1.408282e+00	1.407267e+00	1.038356e+00	1.029120e+00	1.056708e+00	1.035438e+00	1.067828e+00	1.206601e+00	1.178813e+00	1.172571e+00	1.134988e+00	1.147566e+00	1.117326e+00	1.131943e+00	1.102983e+00	1.072078e+00	1.169648e+00	1.152360e+00	1.155124e+00	1.273255e+00	1.288753e+00	1.277262e+00	1.128996e+00	1.155937e+00	1.178431e+00	1.180362e+00	1.291283e+00	1.200455e+00	1.197883e+00	1.173906e+00	1.158988e+00	1.182932e+00	1.181538e+00	1.167988e+00	1.199409e+00	1.171508e+00	1.191548e+00	1.182964e+00	1.411232e+00	1.293284e+00	1.267682e+00	1.267723e+00	1.269133e+00	1.269819e+00	1.273863e+00	1.291284e+00	1.284809e+00	1.286516e+00	1.262656e+00	1.261647e+00	1.266090e+00	1.370133e+00	1.352460e+00	1.363369e+00	1.282747e+00	1.279999e+00	1.284511e+00	1.289521e+00	1.294442e+00	1.301958e+00	1.303015e+00	1.300952e+00	1.296015e+00	1.300687e+00	1.295182e+00	1.306862e+00	1.307741e+00	1.304737e+00	1.303210e+00	1.303153e+00	1.307047e+00	1.301747e+00	1.372898e+00	1.374314e+00	1.381358e+00	1.368204e+00	1.369421e+00	1.366327e+00	1.376954e+00	1.378847e+00	1.414667e+00	1.349828e+00	1.360254e+00	1.334389e+00	1.247715e+00	1.213193e+00	1.235841e+00	1.403744e+00	1.392046e+00	1.397315e+00	1.210799e+00	1.240118e+00	1.237618e+00	1.359205e+00	1.360452e+00	1.334496e+00	1.258224e+00	1.270033e+00	1.227254e+00	1.418148e+00	1.421013e+00	1.194581e+00	1.145285e+00	1.191161e+00	1.413670e+00	1.405549e+00	1.412201e+00	1.083258e+00	1.123705e+00	1.419707e+00	1.416585e+00	1.415036e+00	1.417541e+00	1.281247e+00	1.294105e+00	1.309180e+00	1.153079e+00	1.188903e+00	1.199369e+00	1.099240e+00	1.099924e+00	1.055893e+00	1.064257e+00	1.059165e+00	1.090111e+00	1.143819e+00	1.182354e+00	1.306091e+00	1.310374e+00	1.316223e+00	1.242898e+00	1.221679e+00	1.243575e+00	1.292813e+00	1.292768e+00	1.256295e+00	1.279023e+00	1.231935e+00	1.182931e+00	1.246156e+00	1.376466e+00	1.368918e+00	1.377697e+00	9.355088e-01	8.443488e-01	8.469975e-01	1.314249e+00	1.304217e+00	1.309064e+00	1.262684e+00	1.272836e+00	1.277965e+00	1.319293e+00	1.317400e+00	1.316405e+00	1.296412e+00	1.274967e+00	1.289257e+00	1.212238e+00	1.204929e+00	1.170535e+00	1.291486e+00	1.283713e+00	1.293688e+00	1.393169e+00	1.394359e+00	1.402371e+00	1.291618e+00	1.291484e+00	1.291697e+00	1.291695e+00	1.291733e+00	1.242931e+00	1.243008e+00	1.249752e+00	1.229810e+00	1.218554e+00	1.203498e+00	1.208669e+00	1.291634e+00	1.291440e+00	1.291545e+00	1.070874e+00	8.009221e-01	1.124118e+00	1.205649e+00	1.136058e+00	8.155983e-01	5.936529e-01	5.565984e-01	1.291926e+00	1.291827e+00	6.761678e-01	6.167460e-01	6.370780e-01	6.597338e-01	1.117506e+00	7.702763e-01	7.565548e-01	7.319835e-01	8.070754e-01	7.580582e-01	1.291860e+00	8.122227e-01	8.243079e-01	1.281857e+00	1.276323e+00	1.284838e+00	9.356920e-01	9.200286e-01	9.039310e-01	9.987817e-01	9.736642e-01	9.998622e-01	9.528181e-01	9.600648e-01	9.808386e-01	1.291988e+00	1.050644e+00	1.047198e+00	1.062521e+00	1.058953e+00	1.292074e+00	1.052174e+00	1.055335e+00	1.071354e+00	1.292181e+00	1.291442e+00	1.291784e+00	1.291904e+00	1.291954e+00	1.292100e+00	1.291548e+00	1.292464e+00	1.292236e+00	1.292157e+00	1.292202e+00	1.292166e+00	1.047052e+00	1.292236e+00	1.292208e+00	1.292201e+00	1.292281e+00	1.292265e+00	1.292283e+00	1.292219e+00	1.292253e+00	1.292309e+00	1.292328e+00	1.292336e+00	1.292355e+00	1.292385e+00	1.292358e+00	1.292379e+00	1.292358e+00	1.292404e+00	1.292438e+00	1.059541e+00	1.129483e+00	1.114158e+00	1.019218e+00	9.339560e-01	9.828064e-01	1.307472e+00	1.301350e+00	1.292297e+00	1.292211e+00	1.292447e+00	1.292569e+00	1.293459e+00	1.293409e+00	1.293909e+00	1.292516e+00	1.302143e+00	1.298131e+00	1.299130e+00	1.292602e+00	1.292644e+00	1.296783e+00	1.300402e+00	1.314122e+00	1.313519e+00	1.326076e+00	1.293078e+00	1.293119e+00	1.292748e+00	1.292626e+00	1.292681e+00	1.321460e+00	1.331692e+00	1.318629e+00	1.619487e+00	1.611804e+00	1.580141e+00	1.292907e+00	1.292832e+00	1.292874e+00	1.627938e+00	1.593568e+00	1.601661e+00	1.563778e+00	1.549562e+00	1.578155e+00	1.551017e+00	1.523708e+00	1.260995e+00	1.242466e+00	1.256242e+00	1.049182e+00	1.012557e+00	1.302412e+00	1.293024e+00	1.305995e+00	1.305367e+00	1.260775e+00	1.116856e+00	1.163420e+00	1.196123e+00	1.233944e+00	1.262183e+00	1.231345e+00	1.292828e+00	1.292874e+00	1.320277e+00	1.323291e+00	1.298718e+00	1.343501e+00	1.288587e+00	1.265632e+00	1.292674e+00	1.363430e+00	1.368492e+00	1.368224e+00	1.389431e+00	1.378465e+00	1.365521e+00	1.360102e+00	1.366242e+00	1.365387e+00	1.361798e+00	1.495669e+00	1.428255e+00	1.456115e+00	1.428759e+00	1.375397e+00	1.378034e+00	1.458323e+00	1.453443e+00	1.432001e+00	1.391590e+00	1.391029e+00	1.430669e+00	1.431299e+00	1.411486e+00	1.371783e+00	1.370529e+00	1.373214e+00	1.377475e+00	1.371947e+00	1.372990e+00	1.292294e+00	1.291971e+00	1.290428e+00	1.291585e+00	1.008526e+00	9.862721e-01	1.292099e+00	1.292090e+00	1.292832e+00	1.292877e+00	1.293455e+00	1.404288e+00	1.405798e+00	1.293398e+00	1.293647e+00	1.294325e+00	1.292551e+00	1.292714e+00	1.292666e+00	1.291930e+00	1.292020e+00	1.291948e+00	1.292733e+00	1.292787e+00	1.292795e+00	1.293457e+00	1.291776e+00	1.291753e+00	1.291831e+00	1.291748e+00	1.291902e+00	1.292492e+00	1.292439e+00	1.292484e+00	1.292196e+00	1.291964e+00	1.291978e+00	1.292966e+00	1.292083e+00	1.292273e+00	1.292103e+00	1.292191e+00	1.295629e+00	1.295152e+00	1.294138e+00	1.291739e+00	1.291901e+00	1.289969e+00	1.290730e+00	1.289936e+00	1.288652e+00	1.289682e+00	1.292838e+00	1.292633e+00	1.292669e+00	1.292873e+00	1.292675e+00	1.292734e+00	1.292309e+00	1.292330e+00	1.292338e+00	1.292278e+00	1.292261e+00	1.292240e+00	1.292162e+00	1.291755e+00	1.291753e+00	1.292960e+00	1.293081e+00	1.292985e+00	1.292086e+00	1.292125e+00	1.292024e+00	1.291978e+00	1.291875e+00	1.291770e+00	1.291864e+00	1.291913e+00	1.291899e+00	1.291878e+00	1.292305e+00	1.292414e+00	1.292713e+00	1.292662e+00	1.292576e+00	1.292820e+00	1.292479e+00	1.292442e+00	1.292403e+00	1.292077e+00	1.292000e+00	1.292100e+00	1.291757e+00	1.292455e+00	1.292863e+00	1.293154e+00	1.071119e+00	1.075503e+00	1.124483e+00	1.094262e+00	1.102235e+00	1.083588e+00	1.151001e+00	1.292945e+00	1.291732e+00	1.292445e+00	1.292888e+00	1.292965e+00	1.292882e+00	1.291528e+00	1.291717e+00	1.292128e+00	1.292013e+00	1.292394e+00	1.292415e+00	1.292434e+00	1.292504e+00	1.291672e+00	1.291726e+00	1.292177e+00	1.292625e+00	1.260837e+00	1.283138e+00	1.273763e+00	1.294477e+00	1.295756e+00	1.295161e+00	1.291543e+00	1.294276e+00	1.294966e+00	1.290606e+00	1.290882e+00	1.246860e+00	1.232998e+00	1.292305e+00	1.291659e+00	1.292253e+00	1.292326e+00	1.292378e+00	1.292373e+00	1.292397e+00	1.292117e+00	1.292914e+00	1.293004e+00	1.291609e+00	1.291500e+00	1.291777e+00	1.292763e+00	1.292787e+00	1.291762e+00	1.291868e+00	1.292788e+00	1.292456e+00	1.292051e+00	1.291966e+00	1.292527e+00	1.291566e+00	1.292593e+00	1.292514e+00	1.293131e+00	1.291803e+00	1.291634e+00	1.292064e+00	1.292904e+00	1.291882e+00	1.293267e+00	1.292502e+00	1.292553e+00	1.291004e+00	1.290663e+00	1.293119e+00	1.293944e+00	1.226333e+00	1.245299e+00	1.292502e+00	1.292570e+00	1.292509e+00	1.291713e+00	1.291923e+00	1.291867e+00	1.291842e+00	1.291946e+00	1.291619e+00	1.292881e+00	1.291585e+00	1.291898e+00	1.291882e+00	1.293050e+00	1.292906e+00	1.291920e+00	1.291851e+00	1.292450e+00	1.292591e+00	1.292525e+00	1.292493e+00	1.165520e+00	1.200930e+00	1.247662e+00	1.292452e+00	1.292416e+00	1.293409e+00	1.292772e+00	1.292961e+00	1.293989e+00	1.295684e+00	1.294301e+00	1.289568e+00	1.296187e+00	1.291619e+00	1.291489e+00	1.292042e+00	1.292844e+00	1.297851e+00	1.296986e+00	1.288440e+00	1.290388e+00	1.288942e+00	1.291545e+00	1.340206e+00	1.336149e+00	1.354351e+00	1.294324e+00	1.290872e+00	1.298814e+00	1.296150e+00	1.297547e+00	1.289010e+00	1.291817e+00	1.291843e+00	1.291903e+00	1.281657e+00	1.288251e+00	1.293248e+00	1.285126e+00	1.287070e+00	1.288489e+00	1.293353e+00	1.293102e+00	1.294570e+00	1.297194e+00	1.296251e+00	1.300511e+00	1.302988e+00	1.302445e+00	1.293570e+00	1.289436e+00	1.292446e+00	1.285969e+00	1.284481e+00	1.294389e+00	1.294235e+00	1.290777e+00	1.293786e+00	1.291090e+00	1.292859e+00	1.295557e+00	1.399867e+00	1.398100e+00	1.291341e+00	1.291119e+00	1.290803e+00	1.288365e+00	1.289301e+00	1.299770e+00	1.301869e+00	1.298411e+00	1.268187e+00	1.272100e+00	1.294831e+00	1.289433e+00	1.289595e+00	1.291167e+00	1.263798e+00	1.259271e+00	1.285998e+00	1.289089e+00	1.288671e+00	1.283473e+00	1.284179e+00	1.293196e+00	1.295004e+00	1.297030e+00	1.300279e+00	1.297892e+00	1.298303e+00	1.395768e+00	1.397904e+00	1.296517e+00	1.283137e+00	1.287469e+00	1.293426e+00	1.289693e+00	1.284362e+00	1.277211e+00	1.295633e+00	1.291032e+00	1.296271e+00	1.272266e+00	1.256533e+00	1.287119e+00	1.308632e+00	1.305411e+00	1.304255e+00	1.273267e+00	1.305597e+00	1.311082e+00	1.312130e+00	1.298805e+00	1.300956e+00	1.328380e+00	1.315465e+00	1.306536e+00	1.306639e+00	1.294836e+00	1.299862e+00	1.304603e+00	1.302966e+00	1.303295e+00	1.300911e+00	9.493239e-01	1.306428e+00	1.301226e+00	1.305701e+00	1.301648e+00	1.304715e+00	1.249208e+00	1.217334e+00	1.046714e+00	1.302257e+00	1.313904e+00	1.284919e+00	1.309653e+00	1.296687e+00	1.308570e+00	1.310917e+00	1.303621e+00	1.319347e+00	1.383376e+00	1.303415e+00	1.321249e+00	1.310798e+00	1.331783e+00	1.312923e+00	1.306052e+00	1.282466e+00	1.279060e+00	1.601333e+00	1.311990e+00	1.281498e+00	1.076280e+00	1.135257e+00	1.152497e+00	1.114582e+00	1.299596e+00	1.306431e+00	1.293649e+00	1.228520e+00	1.340734e+00	1.336820e+00	1.352631e+00	1.297687e+00	1.305520e+00	1.149383e+00	1.180503e+00	1.224950e+00	1.313850e+00	1.403329e+00	1.369238e+00	1.362725e+00	1.152481e+00	1.182189e+00	1.294351e+00	1.303214e+00	1.284072e+00	1.325601e+00	1.337248e+00	1.313183e+00	1.324982e+00	1.298515e+00	1.350034e+00	1.323179e+00	1.328169e+00	1.231827e+00	1.281641e+00	1.268955e+00	1.280546e+00	1.276846e+00	1.177290e+00	1.251655e+00	1.192818e+00	1.184628e+00	1.142263e+00	8.658063e-01	7.676207e-01	8.555382e-01	1.212494e+00	1.196994e+00	1.183391e+00	1.245099e+00	1.158646e+00	1.291562e+00	1.250796e+00	1.479599e+00	1.485272e+00	1.320606e+00	1.298800e+00	1.419270e+00	1.397087e+00	1.396583e+00	1.303258e+00	1.283628e+00	1.298264e+00	1.288095e+00	1.314426e+00	1.305291e+00	1.288054e+00	1.290450e+00	1.410192e+00	1.401422e+00	1.407741e+00	1.332521e+00	1.263897e+00	1.263212e+00	1.261665e+00	1.326001e+00	1.276310e+00	1.348842e+00	1.347011e+00	1.329335e+00	1.307149e+00	1.209031e+00	1.132122e+00	1.089570e+00	1.138269e+00	1.121905e+00	1.314614e+00	1.294318e+00	1.306127e+00	1.286166e+00	1.331201e+00	1.262703e+00	1.262723e+00	1.368234e+00	1.336405e+00	1.299566e+00	1.271558e+00	1.268712e+00	1.294664e+00	1.475562e+00	1.445597e+00	1.445104e+00	1.389290e+00	1.380122e+00	1.409315e+00	7.623207e-01	7.857858e-01	8.367013e-01	1.334959e+00	1.032477e+00	1.046815e+00	1.055809e+00	1.119062e+00	1.105496e+00	1.309726e+00	1.341422e+00	1.215696e+00	1.248856e+00	1.229788e+00	1.256964e+00	1.242612e+00	1.218574e+00	1.222308e+00	1.292130e+00	1.278661e+00	1.274951e+00	1.298014e+00	1.330710e+00	1.226326e+00	1.247346e+00	1.202095e+00	1.156353e+00	1.175253e+00	1.289342e+00	1.273780e+00	1.412945e+00	1.409090e+00	1.303279e+00	1.304259e+00	1.350180e+00	1.260721e+00	1.202633e+00	1.364181e+00	1.537341e+00	1.515427e+00	1.535513e+00	1.354392e+00	1.079632e+00	1.120266e+00	1.350611e+00	1.401053e+00	1.333869e+00	1.334384e+00	1.277228e+00	1.304119e+00	1.305114e+00	1.195748e+00	1.145624e+00	9.594387e-01	1.088185e+00	1.345201e+00	1.318604e+00	1.218342e+00	1.047509e+00	9.419208e-01	1.091676e+00	1.268924e+00	1.215241e+00	1.264344e+00	1.242233e+00	1.024703e+00	9.038570e-01	1.190224e+00	1.162969e+00	1.187476e+00	1.157023e+00	1.278689e+00	9.926264e-01	1.018969e+00	1.299843e+00	1.331750e+00	1.180311e+00	1.284345e+00	1.291823e+00	1.319658e+00	1.352150e+00	1.354453e+00	1.332371e+00	1.261524e+00	1.099005e+00	1.130262e+00	1.373379e+00	1.355576e+00	1.360785e+00	1.342148e+00	1.297095e+00	1.291426e+00	1.009728e+00	1.292934e+00	1.415421e+00	1.270818e+00	1.260674e+00	1.239818e+00	1.294765e+00	1.302725e+00	1.378835e+00	1.363233e+00	1.259001e+00	1.280771e+00	1.248567e+00	1.171815e+00	1.373019e+00	1.388489e+00	1.328858e+00	1.194475e+00	1.198622e+00	9.818987e-01	1.436266e+00	1.432803e+00	1.204538e+00	1.246094e+00	1.163614e+00	1.349505e+00	1.344238e+00	1.332809e+00	1.355967e+00	1.270752e+00	1.246091e+00	1.309466e+00	1.405673e+00	1.367979e+00	9.675489e-01	1.046376e+00	1.017943e+00	1.250481e+00	1.202143e+00	1.192124e+00	1.216717e+00	1.194739e+00	1.236571e+00	1.342934e+00	1.330847e+00	1.299377e+00	8.344525e-01	1.350659e+00	1.394912e+00	1.296784e+00	1.306474e+00	1.080605e+00	1.181230e+00	1.188486e+00	1.220966e+00	1.239386e+00	1.323235e+00	1.230268e+00	1.191532e+00	1.068071e+00	1.041813e+00	1.252202e+00	1.011861e+00	1.059818e+00	1.257694e+00	6.876871e-01	1.170983e+00	1.179309e+00	1.361216e+00	1.358062e+00	1.380633e+00	1.380610e+00	1.388353e+00	1.373239e+00	1.381157e+00	1.406153e+00	1.260687e+00	1.229734e+00	1.090302e+00	1.038959e+00	1.060196e+00	1.041433e+00	1.138517e+00	1.178547e+00	1.356948e+00	1.365665e+00	1.052218e+00	8.948555e-01	1.189198e+00	1.283658e+00	1.227260e+00	1.220701e+00	1.258629e+00	1.276954e+00	1.273981e+00	1.207155e+00	1.184645e+00	1.255991e+00	1.279957e+00	1.257637e+00	1.285797e+00	1.079044e+00	1.015362e+00	9.600279e-01	9.661281e-01	1.302304e+00	1.290790e+00	1.292523e+00	1.306269e+00	1.254352e+00	1.243643e+00	1.202052e+00	1.072722e+00	1.060051e+00	1.229801e+00	1.335534e+00	1.360746e+00	1.382469e+00	1.336936e+00	1.175389e+00	1.053151e+00	1.296355e+00	1.290395e+00	1.291428e+00	1.296213e+00	1.054974e+00	9.589941e-01	1.024241e+00	9.146167e-01	9.006490e-01	9.728608e-01	1.367687e+00	1.355535e+00	8.421061e-01	8.092585e-01	1.229899e+00	1.189641e+00	1.176598e+00	1.111854e+00	1.140644e+00	6.479538e-01	5.874721e-01	1.146295e+00	1.439529e+00	1.249883e+00	1.263869e+00	1.436920e+00	1.423476e+00	1.472135e+00	1.170564e+00	1.484401e+00	1.362919e+00	1.427385e+00	1.285473e+00	1.292301e+00	1.409384e+00	1.412015e+00	1.415968e+00	1.403242e+00	1.360081e+00	1.393972e+00	1.326540e+00	1.299040e+00	1.288523e+00	1.273930e+00	1.350725e+00	1.417860e+00	1.395457e+00	1.195697e+00	1.157760e+00	1.372124e+00	1.161962e+00	1.118363e+00	1.414182e+00	1.416373e+00	1.395256e+00	1.197596e+00	1.165735e+00	1.309010e+00	1.106850e+00	1.086287e+00	1.157142e+00	1.124570e+00	1.125751e+00	1.163856e+00	9.455680e-01	8.931166e-01	7.255669e-01	7.214993e-01	1.109988e+00	1.194699e+00	1.151517e+00	1.299382e+00	1.298216e+00	1.269396e+00	1.347030e+00	1.278961e+00	1.227372e+00	1.283035e+00	1.250545e+00	9.170575e-01	8.850988e-01	1.296231e+00	1.294108e+00	1.299454e+00	1.249443e+00	1.262906e+00	1.244345e+00	1.408484e+00	9.166885e-01	9.403322e-01	9.291221e-01	9.619132e-01	1.006390e+00	9.890430e-01	1.261073e+00	1.257476e+00	1.455382e+00	1.380384e+00	1.393304e+00	1.435582e+00	1.312192e+00	1.178872e+00	8.507155e-01	8.754246e-01	8.935797e-01	1.222111e+00	1.301174e+00	9.831243e-01	1.077648e+00	1.006039e+00	1.032566e+00	1.231496e+00	1.406542e+00	1.252343e+00	1.291682e+00	1.177760e+00	1.298351e+00	6.608597e-01	1.030996e+00	9.435451e-01	1.364425e+00	1.397032e+00	1.402739e+00	1.158577e+00	1.127864e+00	1.232090e+00	1.351098e+00	8.850678e-01	8.603491e-01	1.233253e+00	1.227742e+00	1.235845e+00	1.211552e+00	9.808098e-01	1.294856