# vtk DataFile Version 3.0
vtk output
ASCII
DATASET UNSTRUCTURED_GRID
POINTS 198 double
0.000000e+00	0.000000e+00	0.0	3.097674e-03	3.924846e-03	0.0	6.317759e-03	7.989520e-03	0.0	1.072512e-02	1.107306e-02	0.0	1.531428e-02	1.423392e-02	0.0	2.055355e-02	1.666912e-02	0.0	2.599395e-02	1.915780e-02	0.0	3.182134e-02	2.126094e-02	0.0	3.786523e-02	2.339688e-02	0.0	4.420294e-02	2.534813e-02	0.0	5.077273e-02	2.730500e-02	0.0	5.760630e-02	2.917296e-02	0.0	6.468134e-02	3.103652e-02	0.0	7.200135e-02	3.289655e-02	0.0	7.957290e-02	3.473628e-02	0.0	8.739163e-02	3.658344e-02	0.0	9.548451e-02	3.833062e-02	0.0	1.038411e-01	4.002115e-02	0.0	1.124696e-01	4.162317e-02	0.0	1.213681e-01	4.313501e-02	0.0	1.305365e-01	4.456220e-02	0.0	1.399704e-01	4.591206e-02	0.0	1.496876e-01	4.705412e-02	0.0	1.596552e-01	4.822561e-02	0.0	1.699158e-01	4.895514e-02	0.0	1.804291e-01	4.966153e-02	0.0	1.911992e-01	5.010854e-02	0.0	2.022280e-01	5.016227e-02	0.0	2.134979e-01	5.021718e-02	0.0	2.249963e-01	4.981340e-02	0.0	2.367251e-01	4.932712e-02	0.0	2.486815e-01	4.886301e-02	0.0	2.608606e-01	4.845950e-02	0.0	2.732529e-01	4.804891e-02	0.0	2.858527e-01	4.821962e-02	0.0	2.986503e-01	4.856095e-02	0.0	3.116138e-01	4.921573e-02	0.0	3.246892e-01	5.078541e-02	0.0	3.379319e-01	5.237517e-02	0.0	3.512440e-01	5.456238e-02	0.0	3.646670e-01	5.699241e-02	0.0	3.782161e-01	5.947666e-02	0.0	3.918596e-01	6.211568e-02	0.0	4.056093e-01	6.477525e-02	0.0	4.195027e-01	6.716573e-02	0.0	4.335030e-01	6.941610e-02	0.0	4.475845e-01	7.155720e-02	0.0	4.618144e-01	7.295732e-02	0.0	4.760814e-01	7.436110e-02	0.0	4.904138e-01	7.503827e-02	0.0	5.047769e-01	7.532031e-02	0.0	5.191259e-01	7.536870e-02	0.0	5.334206e-01	7.428137e-02	0.0	5.476780e-01	7.319687e-02	0.0	5.617722e-01	7.121402e-02	0.0	5.757493e-01	6.882352e-02	0.0	5.896311e-01	6.636439e-02	0.0	6.033389e-01	6.349678e-02	0.0	6.169408e-01	6.065132e-02	0.0	6.304719e-01	5.807776e-02	0.0	6.439016e-01	5.568467e-02	0.0	6.571983e-01	5.339985e-02	0.0	6.704918e-01	5.231493e-02	0.0	6.836176e-01	5.124370e-02	0.0	6.965882e-01	5.074892e-02	0.0	7.093904e-01	5.074180e-02	0.0	7.219952e-01	5.073817e-02	0.0	7.343937e-01	5.085951e-02	0.0	7.465789e-01	5.097875e-02	0.0	7.585302e-01	5.059832e-02	0.0	7.702447e-01	4.984216e-02	0.0	7.816915e-01	4.882220e-02	0.0	7.927499e-01	4.664871e-02	0.0	8.035719e-01	4.452170e-02	0.0	8.139537e-01	4.161764e-02	0.0	8.240734e-01	3.868180e-02	0.0	8.339150e-01	3.568789e-02	0.0	8.434907e-01	3.268262e-02	0.0	8.528561e-01	2.985721e-02	0.0	8.620648e-01	2.739817e-02	0.0	8.710296e-01	2.500429e-02	0.0	8.798351e-01	2.302391e-02	0.0	8.884122e-01	2.116559e-02	0.0	8.967619e-01	1.944131e-02	0.0	9.049006e-01	1.792160e-02	0.0	9.127984e-01	1.644686e-02	0.0	9.204678e-01	1.507070e-02	0.0	9.279037e-01	1.374822e-02	0.0	9.351055e-01	1.245674e-02	0.0	9.420752e-01	1.118802e-02	0.0	9.488200e-01	9.959784e-03	0.0	9.553386e-01	8.742180e-03	0.0	9.616407e-01	7.565009e-03	0.0	9.677264e-01	6.404931e-03	0.0	9.736039e-01	5.280434e-03	0.0	9.792743e-01	4.172899e-03	0.0	9.847450e-01	3.095470e-03	0.0	9.900195e-01	2.040471e-03	0.0	9.951019e-01	1.004299e-03	0.0	1.000000e+00	0.000000e+00	0.0	9.950057e-01	2.360706e-04	0.0	9.898227e-01	4.328344e-04	0.0	9.844463e-01	5.779596e-04	0.0	9.788722e-01	6.785270e-04	0.0	9.730963e-01	7.547737e-04	0.0	9.671137e-01	7.732014e-04	0.0	9.609203e-01	7.691572e-04	0.0	9.545118e-01	6.996201e-04	0.0	9.478837e-01	6.145887e-04	0.0	9.410333e-01	4.336640e-04	0.0	9.339548e-01	2.467172e-04	0.0	9.266481e-01	-4.725485e-05	0.0	9.191069e-01	-3.752805e-04	0.0	9.113308e-01	-7.814778e-04	0.0	9.033201e-01	-1.321834e-03	0.0	8.950653e-01	-1.878647e-03	0.0	8.865863e-01	-2.710240e-03	0.0	8.778632e-01	-3.607097e-03	0.0	8.689125e-01	-4.698323e-03	0.0	8.597455e-01	-6.081355e-03	0.0	8.503303e-01	-7.507175e-03	0.0	8.407604e-01	-9.497187e-03	0.0	8.309442e-01	-1.153841e-02	0.0	8.209580e-01	-1.395588e-02	0.0	8.107609e-01	-1.656529e-02	0.0	8.003613e-01	-1.937001e-02	0.0	7.897776e-01	-2.242648e-02	0.0	7.789654e-01	-2.555813e-02	0.0	7.679700e-01	-2.890304e-02	0.0	7.567533e-01	-3.231530e-02	0.0	7.452854e-01	-3.567372e-02	0.0	7.335796e-01	-3.900206e-02	0.0	7.216693e-01	-4.238858e-02	0.0	7.093887e-01	-4.515133e-02	0.0	6.969161e-01	-4.795717e-02	0.0	6.841718e-01	-5.030494e-02	0.0	6.711311e-01	-5.199877e-02	0.0	6.579238e-01	-5.371423e-02	0.0	6.444671e-01	-5.426706e-02	0.0	6.308522e-01	-5.466309e-02	0.0	6.171041e-01	-5.476129e-02	0.0	6.032355e-01	-5.434028e-02	0.0	5.892592e-01	-5.391601e-02	0.0	5.751964e-01	-5.328527e-02	0.0	5.610543e-01	-5.261986e-02	0.0	5.468420e-01	-5.206174e-02	0.0	5.325711e-01	-5.168584e-02	0.0	5.182630e-01	-5.130895e-02	0.0	5.039291e-01	-5.142532e-02	0.0	4.895872e-01	-5.160278e-02	0.0	4.752641e-01	-5.207652e-02	0.0	4.609794e-01	-5.297830e-02	0.0	4.467319e-01	-5.387772e-02	0.0	4.326120e-01	-5.557877e-02	0.0	4.185643e-01	-5.733981e-02	0.0	4.046278e-01	-5.930779e-02	0.0	3.908282e-01	-6.156391e-02	0.0	3.771350e-01	-6.380263e-02	0.0	3.635153e-01	-6.571775e-02	0.0	3.500223e-01	-6.757818e-02	0.0	3.366314e-01	-6.895241e-02	0.0	3.233252e-01	-6.951858e-02	0.0	3.101868e-01	-7.007761e-02	0.0	2.972728e-01	-6.904077e-02	0.0	2.845535e-01	-6.775294e-02	0.0	2.720917e-01	-6.608179e-02	0.0	2.599627e-01	-6.358903e-02	0.0	2.480422e-01	-6.113909e-02	0.0	2.364131e-01	-5.839574e-02	0.0	2.250315e-01	-5.558200e-02	0.0	2.138680e-01	-5.285172e-02	0.0	2.028805e-01	-5.040507e-02	0.0	1.921275e-01	-4.801068e-02	0.0	1.815671e-01	-4.589808e-02	0.0	1.712014e-01	-4.406941e-02	0.0	1.610810e-01	-4.228400e-02	0.0	1.511616e-01	-4.082758e-02	0.0	1.414857e-01	-3.944147e-02	0.0	1.320526e-01	-3.814074e-02	0.0	1.228550e-01	-3.697864e-02	0.0	1.139068e-01	-3.584804e-02	0.0	1.052068e-01	-3.474933e-02	0.0	9.675360e-02	-3.368194e-02	0.0	8.854984e-02	-3.261129e-02	0.0	8.059932e-02	-3.149158e-02	0.0	7.288826e-02	-3.040559e-02	0.0	6.545011e-02	-2.912275e-02	0.0	5.824770e-02	-2.785677e-02	0.0	5.133402e-02	-2.634119e-02	0.0	4.467182e-02	-2.473623e-02	0.0	3.832267e-02	-2.284900e-02	0.0	3.223487e-02	-2.084572e-02	0.0	2.651065e-02	-1.849028e-02	0.0	2.104550e-02	-1.606252e-02	0.0	1.595163e-02	-1.333857e-02	0.0	1.116715e-02	-1.048694e-02	0.0	6.684605e-03	-7.519305e-03	0.0	2.766489e-03	-4.120683e-03	0.0	
CELLS 198	594
2	0	1	2	1	2	2	2	3	2	3	4	2	4	5	2	5	6	2	6	7	2	7	8	2	8	9	2	9	10	2	10	11	2	11	12	2	12	13	2	13	14	2	14	15	2	15	16	2	16	17	2	17	18	2	18	19	2	19	20	2	20	21	2	21	22	2	22	23	2	23	24	2	24	25	2	25	26	2	26	27	2	27	28	2	28	29	2	29	30	2	30	31	2	31	32	2	32	33	2	33	34	2	34	35	2	35	36	2	36	37	2	37	38	2	38	39	2	39	40	2	40	41	2	41	42	2	42	43	2	43	44	2	44	45	2	45	46	2	46	47	2	47	48	2	48	49	2	49	50	2	50	51	2	51	52	2	52	53	2	53	54	2	54	55	2	55	56	2	56	57	2	57	58	2	58	59	2	59	60	2	60	61	2	61	62	2	62	63	2	63	64	2	64	65	2	65	66	2	66	67	2	130	131	2	131	132	2	132	133	2	133	134	2	134	135	2	135	136	2	136	137	2	137	138	2	138	139	2	139	140	2	140	141	2	141	142	2	142	143	2	143	144	2	144	145	2	145	146	2	146	147	2	147	148	2	148	149	2	149	150	2	150	151	2	151	152	2	152	153	2	153	154	2	154	155	2	155	156	2	156	157	2	157	158	2	158	159	2	159	160	2	160	161	2	161	162	2	162	163	2	163	164	2	164	165	2	165	166	2	166	167	2	167	168	2	168	169	2	169	170	2	170	171	2	171	172	2	172	173	2	173	174	2	174	175	2	175	176	2	176	177	2	177	178	2	178	179	2	179	180	2	180	181	2	181	182	2	182	183	2	183	184	2	184	185	2	185	186	2	186	187	2	187	188	2	188	189	2	189	190	2	190	191	2	191	192	2	192	193	2	193	194	2	194	195	2	195	196	2	196	197	2	197	0	2	67	68	2	68	69	2	69	70	2	70	71	2	71	72	2	72	73	2	73	74	2	74	75	2	75	76	2	76	77	2	77	78	2	78	79	2	79	80	2	80	81	2	81	82	2	82	83	2	83	84	2	84	85	2	85	86	2	86	87	2	87	88	2	88	89	2	89	90	2	90	91	2	91	92	2	92	93	2	93	94	2	94	95	2	95	96	2	96	97	2	97	98	2	98	99	2	99	100	2	100	101	2	101	102	2	102	103	2	103	104	2	104	105	2	105	106	2	106	107	2	107	108	2	108	109	2	109	110	2	110	111	2	111	112	2	112	113	2	113	114	2	114	115	2	115	116	2	116	117	2	117	118	2	118	119	2	119	120	2	120	121	2	121	122	2	122	123	2	123	124	2	124	125	2	125	126	2	126	127	2	127	128	2	128	129	2	129	130	
CELL_TYPES 198
3	3	3	3	3	3	3	3	3	3	3	3	3	3	3	3	3	3	3	3	3	3	3	3	3	3	3	3	3	3	3	3	3	3	3	3	3	3	3	3	3	3	3	3	3	3	3	3	3	3	3	3	3	3	3	3	3	3	3	3	3	3	3	3	3	3	3	3	3	3	3	3	3	3	3	3	3	3	3	3	3	3	3	3	3	3	3	3	3	3	3	3	3	3	3	3	3	3	3	3	3	3	3	3	3	3	3	3	3	3	3	3	3	3	3	3	3	3	3	3	3	3	3	3	3	3	3	3	3	3	3	3	3	3	3	3	3	3	3	3	3	3	3	3	3	3	3	3	3	3	3	3	3	3	3	3	3	3	3	3	3	3	3	3	3	3	3	3	3	3	3	3	3	3	3	3	3	3	3	3	3	3	3	3	3	3	3	3	3	3	3	3	3	3	3	3	3	3	
POINT_DATA 198

SCALARS Density double 1
LOOKUP_TABLE default
1.565944e+00	1.239269e+00	1.217659e+00	1.086150e+00	1.044836e+00	1.001359e+00	1.000468e+00	9.993145e-01	1.014858e+00	1.019253e+00	1.028412e+00	1.032939e+00	1.040470e+00	1.036810e+00	1.025656e+00	1.004076e+00	9.785257e-01	9.580017e-01	9.384544e-01	9.233340e-01	9.105201e-01	8.916265e-01	8.788523e-01	8.494662e-01	8.198721e-01	8.032841e-01	7.598454e-01	7.333740e-01	7.283657e-01	8.588205e-01	1.128020e+00	1.226359e+00	1.243120e+00	1.265379e+00	1.280642e+00	1.283749e+00	1.299070e+00	1.286561e+00	1.271201e+00	1.260198e+00	1.228503e+00	1.200916e+00	1.171329e+00	1.128366e+00	1.087787e+00	1.052599e+00	9.947200e-01	9.464262e-01	9.050292e-01	8.501093e-01	8.186422e-01	7.570192e-01	7.010753e-01	6.643047e-01	6.088508e-01	5.847061e-01	5.669470e-01	5.484447e-01	5.768092e-01	7.195799e-01	1.060688e+00	1.208085e+00	1.199523e+00	1.187056e+00	1.188232e+00	1.167171e+00	1.138328e+00	1.114166e+00	1.072801e+00	1.035145e+00	1.018391e+00	9.943764e-01	1.016120e+00	1.063722e+00	1.098604e+00	1.146961e+00	1.174379e+00	1.200688e+00	1.224216e+00	1.234336e+00	1.243091e+00	1.251603e+00	1.249749e+00	1.254307e+00	1.254829e+00	1.254657e+00	1.256922e+00	1.257543e+00	1.259317e+00	1.262252e+00	1.265045e+00	1.268278e+00	1.271926e+00	1.275751e+00	1.280059e+00	1.285040e+00	1.290723e+00	1.298534e+00	1.296236e+00	1.323325e+00	1.430225e+00	1.394922e+00	1.392380e+00	1.399308e+00	1.398371e+00	1.400940e+00	1.402244e+00	1.404656e+00	1.405685e+00	1.407587e+00	1.409902e+00	1.410575e+00	1.414927e+00	1.414546e+00	1.419527e+00	1.421894e+00	1.420770e+00	1.425973e+00	1.421155e+00	1.425686e+00	1.422207e+00	1.414165e+00	1.409497e+00	1.396837e+00	1.387917e+00	1.371848e+00	1.356477e+00	1.338953e+00	1.311914e+00	1.285169e+00	1.260576e+00	1.212364e+00	1.177543e+00	1.142764e+00	1.081929e+00	1.044100e+00	1.001881e+00	1.009681e+00	1.060822e+00	1.086238e+00	1.128697e+00	1.168859e+00	1.198367e+00	1.232202e+00	1.258607e+00	1.274239e+00	1.294999e+00	1.307240e+00	1.311555e+00	1.323126e+00	1.319327e+00	1.326775e+00	1.323814e+00	1.304603e+00	1.295766e+00	1.271672e+00	1.235785e+00	1.214569e+00	1.104784e+00	8.826974e-01	8.111138e-01	8.009378e-01	8.662147e-01	9.778630e-01	1.014883e+00	1.086488e+00	1.157782e+00	1.199789e+00	1.250096e+00	1.293483e+00	1.318621e+00	1.339051e+00	1.359371e+00	1.364052e+00	1.373048e+00	1.377808e+00	1.374185e+00	1.376976e+00	1.375327e+00	1.372003e+00	1.371081e+00	1.369038e+00	1.365628e+00	1.365968e+00	1.360712e+00	1.360568e+00	1.360512e+00	1.362105e+00	1.368783e+00	1.381280e+00	1.398549e+00	1.424695e+00	1.458155e+00	1.491143e+00	1.531511e+00	1.568752e+00	1.596520e+00	1.692059e+00	
VECTORS Momentum double
1.766313e+01	1.962609e+02	0.0	1.618971e+02	1.971411e+02	0.0	2.058582e+02	1.946277e+02	0.0	2.426061e+02	1.669533e+02	0.0	2.702846e+02	1.536782e+02	0.0	2.822923e+02	1.298194e+02	0.0	2.903567e+02	1.180600e+02	0.0	2.950664e+02	1.052378e+02	0.0	2.995873e+02	9.898106e+01	0.0	3.018877e+02	9.132176e+01	0.0	3.049328e+02	8.684194e+01	0.0	3.064090e+02	8.201990e+01	0.0	3.085025e+02	7.974923e+01	0.0	3.095844e+02	7.691413e+01	0.0	3.114101e+02	7.470108e+01	0.0	3.129373e+02	7.091445e+01	0.0	3.134724e+02	6.556162e+01	0.0	3.142291e+02	6.085993e+01	0.0	3.144110e+02	5.577283e+01	0.0	3.149546e+02	5.114372e+01	0.0	3.157110e+02	4.719793e+01	0.0	3.146179e+02	4.089873e+01	0.0	3.149828e+02	3.717563e+01	0.0	3.127225e+02	2.967785e+01	0.0	3.093463e+02	2.129979e+01	0.0	3.087622e+02	1.716746e+01	0.0	3.005329e+02	7.750983e+00	0.0	2.993531e+02	1.821554e+00	0.0	2.908141e+02	-5.064604e+00	0.0	2.873687e+02	-1.112483e+01	0.0	2.832565e+02	-1.026459e+01	0.0	2.795354e+02	-9.948413e+00	0.0	2.729309e+02	-9.099237e+00	0.0	2.674583e+02	-2.604953e+00	0.0	2.640955e+02	5.544433e+00	0.0	2.608112e+02	1.012930e+01	0.0	2.606789e+02	2.250591e+01	0.0	2.638189e+02	3.158100e+01	0.0	2.675839e+02	3.790811e+01	0.0	2.735787e+02	4.739012e+01	0.0	2.798046e+02	5.090102e+01	0.0	2.860541e+02	5.375259e+01	0.0	2.927834e+02	5.659876e+01	0.0	2.991880e+02	5.477726e+01	0.0	3.037726e+02	5.059905e+01	0.0	3.087725e+02	4.870442e+01	0.0	3.102637e+02	3.960480e+01	0.0	3.102522e+02	3.058422e+01	0.0	3.110647e+02	2.304486e+01	0.0	3.053907e+02	1.055134e+01	0.0	3.046277e+02	4.230074e+00	0.0	2.948100e+02	-9.340881e+00	0.0	2.833676e+02	-2.134078e+01	0.0	2.769538e+02	-2.939029e+01	0.0	2.606556e+02	-3.993373e+01	0.0	2.546921e+02	-4.460254e+01	0.0	2.500958e+02	-4.869537e+01	0.0	2.436930e+02	-5.091160e+01	0.0	2.465951e+02	-5.004604e+01	0.0	2.578093e+02	-5.027926e+01	0.0	2.594682e+02	-4.522936e+01	0.0	2.501108e+02	-3.336752e+01	0.0	2.460903e+02	-2.013591e+01	0.0	2.445062e+02	-1.465503e+01	0.0	2.458595e+02	-4.440492e+00	0.0	2.518199e+02	2.082962e-01	0.0	2.568399e+02	1.116646e+00	0.0	2.647827e+02	2.686099e+00	0.0	2.723077e+02	-2.629622e+00	0.0	2.752602e+02	-1.309518e+01	0.0	2.807218e+02	-2.127397e+01	0.0	2.769990e+02	-3.899643e+01	0.0	2.698107e+02	-5.299409e+01	0.0	2.630642e+02	-6.211540e+01	0.0	2.497811e+02	-7.120423e+01	0.0	2.402232e+02	-7.123765e+01	0.0	2.299631e+02	-7.104534e+01	0.0	2.201897e+02	-6.792698e+01	0.0	2.149258e+02	-6.119362e+01	0.0	2.106816e+02	-5.623479e+01	0.0	2.070594e+02	-5.087904e+01	0.0	2.066864e+02	-4.532750e+01	0.0	2.053222e+02	-4.336153e+01	0.0	2.044858e+02	-4.017977e+01	0.0	2.044995e+02	-3.817486e+01	0.0	2.038905e+02	-3.737102e+01	0.0	2.034425e+02	-3.633090e+01	0.0	2.028139e+02	-3.621560e+01	0.0	2.016835e+02	-3.644775e+01	0.0	2.002544e+02	-3.645541e+01	0.0	1.985112e+02	-3.657848e+01	0.0	1.963924e+02	-3.666802e+01	0.0	1.942139e+02	-3.664169e+01	0.0	1.917611e+02	-3.660394e+01	0.0	1.890144e+02	-3.651331e+01	0.0	1.859558e+02	-3.640710e+01	0.0	1.819736e+02	-3.604682e+01	0.0	1.770492e+02	-3.568842e+01	0.0	1.663088e+02	-3.538645e+01	0.0	1.929952e+02	-9.865941e+00	0.0	2.694235e+02	-1.438975e+01	0.0	2.545517e+02	-8.432645e+00	0.0	2.494403e+02	-5.126093e+00	0.0	2.520939e+02	-4.141412e+00	0.0	2.497691e+02	-1.949143e+00	0.0	2.493853e+02	-3.205080e-01	0.0	2.485543e+02	1.420813e+00	0.0	2.476089e+02	2.889444e+00	0.0	2.465916e+02	4.862390e+00	0.0	2.458163e+02	6.485926e+00	0.0	2.448075e+02	8.154085e+00	0.0	2.438383e+02	1.021395e+01	0.0	2.427258e+02	1.158177e+01	0.0	2.412162e+02	1.452171e+01	0.0	2.401865e+02	1.617564e+01	0.0	2.381455e+02	1.973998e+01	0.0	2.373318e+02	2.389208e+01	0.0	2.366651e+02	2.650453e+01	0.0	2.353689e+02	3.218307e+01	0.0	2.359579e+02	3.551888e+01	0.0	2.347075e+02	4.223387e+01	0.0	2.364686e+02	4.919411e+01	0.0	2.392946e+02	5.382667e+01	0.0	2.419349e+02	6.026678e+01	0.0	2.465876e+02	6.469844e+01	0.0	2.505015e+02	6.999208e+01	0.0	2.563850e+02	7.407732e+01	0.0	2.620086e+02	7.770703e+01	0.0	2.684014e+02	8.158808e+01	0.0	2.771276e+02	8.267000e+01	0.0	2.846790e+02	8.212504e+01	0.0	2.909989e+02	8.293846e+01	0.0	3.014056e+02	7.641462e+01	0.0	3.073522e+02	6.878712e+01	0.0	3.108324e+02	6.336873e+01	0.0	3.184686e+02	5.022472e+01	0.0	3.179082e+02	4.168842e+01	0.0	3.224014e+02	2.666807e+01	0.0	3.255139e+02	1.105645e+01	0.0	3.211550e+02	6.019689e+00	0.0	3.200796e+02	-3.714951e+00	0.0	3.149979e+02	-9.584436e+00	0.0	3.098868e+02	-1.167239e+01	0.0	3.051147e+02	-1.408199e+01	0.0	2.991360e+02	-1.280341e+01	0.0	2.941410e+02	-9.508610e+00	0.0	2.902719e+02	-7.624689e+00	0.0	2.862564e+02	-2.593549e+00	0.0	2.835718e+02	2.971656e+00	0.0	2.819074e+02	6.307941e+00	0.0	2.795139e+02	1.347128e+01	0.0	2.796716e+02	1.752322e+01	0.0	2.784281e+02	2.556687e+01	0.0	2.808833e+02	3.466155e+01	0.0	2.862256e+02	3.785346e+01	0.0	2.900796e+02	4.401681e+01	0.0	2.975642e+02	4.862512e+01	0.0	3.053395e+02	4.636704e+01	0.0	3.055708e+02	4.153471e+01	0.0	3.049436e+02	3.597760e+01	0.0	3.097865e+02	2.288644e+01	0.0	3.094529e+02	1.276904e+01	0.0	3.221281e+02	-6.349746e+00	0.0	3.335736e+02	-3.140465e+01	0.0	3.298157e+02	-3.860470e+01	0.0	3.302262e+02	-5.594024e+01	0.0	3.250367e+02	-6.674059e+01	0.0	3.178498e+02	-7.006578e+01	0.0	3.112661e+02	-7.527234e+01	0.0	3.024787e+02	-7.433340e+01	0.0	2.957824e+02	-6.906671e+01	0.0	2.913920e+02	-6.497498e+01	0.0	2.876300e+02	-6.092856e+01	0.0	2.851210e+02	-5.362326e+01	0.0	2.846153e+02	-5.030655e+01	0.0	2.833825e+02	-4.579100e+01	0.0	2.836192e+02	-4.103407e+01	0.0	2.844664e+02	-4.003923e+01	0.0	2.842588e+02	-3.749592e+01	0.0	2.850028e+02	-3.593741e+01	0.0	2.858099e+02	-3.612098e+01	0.0	2.862431e+02	-3.614042e+01	0.0	2.867889e+02	-3.680653e+01	0.0	2.870799e+02	-3.893796e+01	0.0	2.871316e+02	-4.035080e+01	0.0	2.871085e+02	-4.488234e+01	0.0	2.854776e+02	-4.965835e+01	0.0	2.834100e+02	-5.594234e+01	0.0	2.794525e+02	-6.424177e+01	0.0	2.726742e+02	-7.316620e+01	0.0	2.627489e+02	-8.219547e+01	0.0	2.483937e+02	-9.164554e+01	0.0	2.284597e+02	-9.784054e+01	0.0	2.042975e+02	-9.978418e+01	0.0	1.742789e+02	-9.810175e+01	0.0	1.364990e+02	-8.493217e+01	0.0	8.348221e+01	-6.124025e+01	0.0	-7.446199e+00	5.945258e+00	0.0	
SCALARS Energy double 1
LOOKUP_TABLE default
3.431342e+05	2.762505e+05	2.734784e+05	2.469508e+05	2.398014e+05	2.309286e+05	2.309907e+05	2.307416e+05	2.340961e+05	2.349784e+05	2.369863e+05	2.379189e+05	2.395778e+05	2.388642e+05	2.367090e+05	2.323934e+05	2.271773e+05	2.230294e+05	2.190357e+05	2.159872e+05	2.134440e+05	2.094862e+05	2.069405e+05	2.008105e+05	1.945514e+05	1.912076e+05	1.817728e+05	1.764967e+05	1.745466e+05	2.000016e+05	2.547978e+05	2.750632e+05	2.781539e+05	2.824878e+05	2.855047e+05	2.859758e+05	2.892458e+05	2.868437e+05	2.838817e+05	2.820266e+05	2.758195e+05	2.705091e+05	2.648608e+05	2.564111e+05	2.483532e+05	2.415289e+05	2.297659e+05	2.199132e+05	2.116227e+05	2.000466e+05	1.937282e+05	1.805856e+05	1.684906e+05	1.607423e+05	1.483514e+05	1.431346e+05	1.393066e+05	1.350800e+05	1.407681e+05	1.697459e+05	2.393646e+05	2.695151e+05	2.673903e+05	2.646465e+05	2.649505e+05	2.608750e+05	2.551375e+05	2.506092e+05	2.425236e+05	2.349625e+05	2.319670e+05	2.268829e+05	2.309861e+05	2.404917e+05	2.470164e+05	2.565505e+05	2.617237e+05	2.666996e+05	2.713118e+05	2.731822e+05	2.748021e+05	2.765340e+05	2.760554e+05	2.769562e+05	2.770502e+05	2.769782e+05	2.774312e+05	2.775335e+05	2.778615e+05	2.784219e+05	2.789399e+05	2.795357e+05	2.802181e+05	2.809282e+05	2.817305e+05	2.826662e+05	2.837161e+05	2.851897e+05	2.842890e+05	2.910088e+05	3.174309e+05	3.091471e+05	3.083391e+05	3.099448e+05	3.096254e+05	3.101509e+05	3.103859e+05	3.108509e+05	3.110201e+05	3.113874e+05	3.118316e+05	3.119305e+05	3.128041e+05	3.126571e+05	3.136719e+05	3.140901e+05	3.138303e+05	3.149193e+05	3.138657e+05	3.148806e+05	3.141334e+05	3.125700e+05	3.117619e+05	3.092769e+05	3.076743e+05	3.045448e+05	3.016673e+05	2.983349e+05	2.930720e+05	2.879994e+05	2.833181e+05	2.737030e+05	2.670924e+05	2.602214e+05	2.479154e+05	2.406463e+05	2.319274e+05	2.337673e+05	2.443363e+05	2.491317e+05	2.577388e+05	2.656179e+05	2.713427e+05	2.780323e+05	2.831177e+05	2.860424e+05	2.901358e+05	2.924447e+05	2.931846e+05	2.955189e+05	2.945896e+05	2.961802e+05	2.955196e+05	2.916879e+05	2.901910e+05	2.854462e+05	2.785023e+05	2.746112e+05	2.518814e+05	2.066817e+05	1.928933e+05	1.908012e+05	2.049679e+05	2.284600e+05	2.356101e+05	2.503664e+05	2.646630e+05	2.728010e+05	2.828162e+05	2.912209e+05	2.959521e+05	2.998967e+05	3.038787e+05	3.046245e+05	3.064517e+05	3.073364e+05	3.065442e+05	3.071737e+05	3.067936e+05	3.061258e+05	3.059808e+05	3.055767e+05	3.048968e+05	3.050026e+05	3.039116e+05	3.039205e+05	3.038581e+05	3.041394e+05	3.054164e+05	3.077887e+05	3.110324e+05	3.159894e+05	3.222679e+05	3.283230e+05	3.358554e+05	3.425543e+05	3.471817e+05	3.669490e+05	
SCALARS Pressure double 1
LOOKUP_TABLE default
1.322943e+05	9.999799e+04	9.620911e+04	8.280993e+04	7.741609e+04	7.308923e+04	7.275643e+04	7.265534e+04	7.401995e+04	7.447202e+04	7.524488e+04	7.568651e+04	7.631421e+04	7.591657e+04	7.468540e+04	7.244924e+04	6.990809e+04	6.782477e+04	6.588387e+04	6.434172e+04	6.299455e+04	6.121616e+04	5.988356e+04	5.709172e+04	5.436596e+04	5.267356e+04	4.892007e+04	4.615941e+04	4.658895e+04	6.074063e+04	8.767474e+04	9.726571e+04	9.926366e+04	1.016877e+05	1.033047e+05	1.037769e+05	1.051585e+05	1.037628e+05	1.020615e+05	1.005759e+05	9.716031e+04	9.409503e+04	9.076060e+04	8.616658e+04	8.190438e+04	7.804560e+04	7.223609e+04	6.742659e+04	6.314872e+04	5.805092e+04	5.481571e+04	4.924929e+04	4.435944e+04	4.094402e+04	3.649882e+04	3.438510e+04	3.282134e+04	3.143055e+04	3.435412e+04	4.872226e+04	8.266576e+04	9.726560e+04	9.679111e+04	9.574989e+04	9.580263e+04	9.348386e+04	9.046469e+04	8.765723e+04	8.318427e+04	7.931270e+04	7.722157e+04	7.501483e+04	7.751311e+04	8.245981e+04	8.652542e+04	9.167267e+04	9.482376e+04	9.783532e+04	1.003664e+05	1.015685e+05	1.026065e+05	1.034590e+05	1.033747e+05	1.038577e+05	1.039223e+05	1.039419e+05	1.041767e+05	1.042629e+05	1.044736e+05	1.048042e+05	1.051343e+05	1.055200e+05	1.059451e+05	1.063964e+05	1.069019e+05	1.074783e+05	1.081540e+05	1.090517e+05	1.092549e+05	1.107595e+05	1.167927e+05	1.143583e+05	1.143946e+05	1.148922e+05	1.149271e+05	1.151816e+05	1.153426e+05	1.156096e+05	1.157530e+05	1.159633e+05	1.162218e+05	1.163272e+05	1.167749e+05	1.168063e+05	1.173039e+05	1.176041e+05	1.175228e+05	1.180134e+05	1.176042e+05	1.179648e+05	1.176558e+05	1.167776e+05	1.161685e+05	1.148100e+05	1.137044e+05	1.119553e+05	1.101661e+05	1.081780e+05	1.052317e+05	1.021845e+05	9.939923e+04	9.437697e+04	9.041553e+04	8.672765e+04	8.056376e+04	7.634764e+04	7.224885e+04	7.277685e+04	7.773464e+04	8.065561e+04	8.493923e+04	8.925358e+04	9.248758e+04	9.607038e+04	9.900178e+04	1.008231e+05	1.030326e+05	1.044401e+05	1.050102e+05	1.061888e+05	1.059647e+05	1.066354e+05	1.063971e+05	1.043960e+05	1.032102e+05	1.006398e+05	9.668819e+04	9.413816e+04	8.353678e+04	6.130974e+04	5.336498e+04	5.236754e+04	5.801925e+04	6.842421e+04	7.251371e+04	7.949681e+04	8.684554e+04	9.146103e+04	9.671933e+04	1.014872e+05	1.043878e+05	1.066461e+05	1.088334e+05	1.095087e+05	1.104126e+05	1.109732e+05	1.106654e+05	1.108832e+05	1.107626e+05	1.104215e+05	1.102863e+05	1.100701e+05	1.097149e+05	1.097122e+05	1.092075e+05	1.091549e+05	1.092003e+05	1.094026e+05	1.101529e+05	1.115748e+05	1.135741e+05	1.165553e+05	1.204353e+05	1.243957e+05	1.291190e+05	1.337267e+05	1.375298e+05	1.467689e+05	
SCALARS Temperature double 1
LOOKUP_TABLE default
2.943035e+02	2.810968e+02	2.752458e+02	2.655969e+02	2.581151e+02	2.542692e+02	2.533370e+02	2.532770e+02	2.540820e+02	2.545314e+02	2.548825e+02	2.552550e+02	2.555090e+02	2.550749e+02	2.536672e+02	2.513608e+02	2.488775e+02	2.466337e+02	2.445661e+02	2.427528e+02	2.410148e+02	2.391737e+02	2.373679e+02	2.341302e+02	2.309996e+02	2.284304e+02	2.242808e+02	2.192629e+02	2.228250e+02	2.463810e+02	2.707623e+02	2.762946e+02	2.781683e+02	2.799485e+02	2.810105e+02	2.816118e+02	2.819954e+02	2.809582e+02	2.796906e+02	2.780260e+02	2.755135e+02	2.729508e+02	2.699286e+02	2.660230e+02	2.622973e+02	2.582948e+02	2.529786e+02	2.481846e+02	2.430705e+02	2.378837e+02	2.332605e+02	2.266332e+02	2.204204e+02	2.147106e+02	2.088326e+02	2.048628e+02	2.016714e+02	1.996409e+02	2.074804e+02	2.358733e+02	2.714990e+02	2.804737e+02	2.810975e+02	2.809941e+02	2.808708e+02	2.790183e+02	2.768484e+02	2.740742e+02	2.701172e+02	2.669145e+02	2.641525e+02	2.628008e+02	2.657421e+02	2.700501e+02	2.743675e+02	2.784336e+02	2.812802e+02	2.838546e+02	2.856016e+02	2.866526e+02	2.875427e+02	2.879598e+02	2.881523e+02	2.884466e+02	2.885059e+02	2.885999e+02	2.887305e+02	2.888268e+02	2.890026e+02	2.892430e+02	2.895135e+02	2.898348e+02	2.901679e+02	2.905302e+02	2.909282e+02	2.913632e+02	2.919038e+02	2.925565e+02	2.936209e+02	2.915712e+02	2.844734e+02	2.855934e+02	2.862055e+02	2.860274e+02	2.863061e+02	2.864138e+02	2.865473e+02	2.867177e+02	2.868631e+02	2.869958e+02	2.871634e+02	2.872867e+02	2.875053e+02	2.876601e+02	2.878717e+02	2.881281e+02	2.881566e+02	2.883039e+02	2.882782e+02	2.882432e+02	2.881913e+02	2.876668e+02	2.871141e+02	2.863283e+02	2.853935e+02	2.842949e+02	2.829214e+02	2.814517e+02	2.794291e+02	2.769842e+02	2.746909e+02	2.711835e+02	2.674834e+02	2.643816e+02	2.594008e+02	2.547323e+02	2.512147e+02	2.510959e+02	2.552716e+02	2.586664e+02	2.621570e+02	2.660075e+02	2.688586e+02	2.716052e+02	2.740206e+02	2.756381e+02	2.771630e+02	2.783186e+02	2.789173e+02	2.795812e+02	2.797945e+02	2.799848e+02	2.799840e+02	2.787637e+02	2.774766e+02	2.756926e+02	2.725593e+02	2.700062e+02	2.634089e+02	2.419624e+02	2.291949e+02	2.277685e+02	2.333334e+02	2.437598e+02	2.489054e+02	2.548914e+02	2.613070e+02	2.655593e+02	2.695257e+02	2.733259e+02	2.757784e+02	2.774458e+02	2.789037e+02	2.796714e+02	2.801324e+02	2.805819e+02	2.805413e+02	2.805238e+02	2.805547e+02	2.803681e+02	2.802133e+02	2.800815e+02	2.798746e+02	2.797980e+02	2.795867e+02	2.794816e+02	2.796094e+02	2.797997e+02	2.803443e+02	2.813940e+02	2.828995e+02	2.849971e+02	2.877269e+02	2.906138e+02	2.936976e+02	2.969574e+02	3.000909e+02	3.021681e+02	
SCALARS Mach double 1
LOOKUP_TABLE default
3.659003e-01	6.124428e-01	6.995326e-01	8.299220e-01	9.239402e-01	9.706722e-01	9.818706e-01	9.825901e-01	9.729245e-01	9.675138e-01	9.632789e-01	9.587780e-01	9.557046e-01	9.609548e-01	9.779097e-01	1.005465e+00	1.034861e+00	1.061211e+00	1.085338e+00	1.106394e+00	1.126495e+00	1.147714e+00	1.168463e+00	1.205542e+00	1.241285e+00	1.270573e+00	1.317851e+00	1.375102e+00	1.334446e+00	1.064167e+00	7.617375e-01	6.844772e-01	6.570194e-01	6.301850e-01	6.137886e-01	6.043650e-01	5.982958e-01	6.146040e-01	6.341220e-01	6.591311e-01	6.957098e-01	7.317789e-01	7.729674e-01	8.244137e-01	8.719707e-01	9.217337e-01	9.861641e-01	1.043018e+00	1.102711e+00	1.162543e+00	1.215479e+00	1.291049e+00	1.361881e+00	1.427237e+00	1.495017e+00	1.541193e+00	1.578603e+00	1.602556e+00	1.510705e+00	1.185597e+00	7.517325e-01	6.221154e-01	6.124312e-01	6.140443e-01	6.159629e-01	6.443039e-01	6.764399e-01	7.161089e-01	7.704347e-01	8.128274e-01	8.484556e-01	8.656191e-01	8.280462e-01	7.713363e-01	7.119816e-01	6.530692e-01	6.095745e-01	5.682121e-01	5.387997e-01	5.204884e-01	5.045716e-01	4.969708e-01	4.934332e-01	4.879821e-01	4.868775e-01	4.851214e-01	4.826754e-01	4.808650e-01	4.775446e-01	4.729720e-01	4.677848e-01	4.615585e-01	4.550298e-01	4.478384e-01	4.398240e-01	4.309184e-01	4.196278e-01	4.056352e-01	3.818597e-01	4.266045e-01	5.579304e-01	5.389411e-01	5.283389e-01	5.314408e-01	5.265813e-01	5.246937e-01	5.223453e-01	5.193379e-01	5.167596e-01	5.143988e-01	5.114030e-01	5.091900e-01	5.052471e-01	5.024424e-01	4.985849e-01	4.938790e-01	4.933539e-01	4.906315e-01	4.911059e-01	4.917541e-01	4.927138e-01	5.023195e-01	5.122842e-01	5.261927e-01	5.423669e-01	5.609111e-01	5.834572e-01	6.068846e-01	6.380963e-01	6.744578e-01	7.074148e-01	7.560270e-01	8.053871e-01	8.455285e-01	9.081040e-01	9.650916e-01	1.007202e+00	1.008614e+00	9.585779e-01	9.171642e-01	8.737365e-01	8.246141e-01	7.872456e-01	7.502836e-01	7.168618e-01	6.939257e-01	6.718445e-01	6.547833e-01	6.458234e-01	6.357863e-01	6.325378e-01	6.296307e-01	6.296423e-01	6.481307e-01	6.672445e-01	6.931446e-01	7.371925e-01	7.719257e-01	8.579175e-01	1.115544e+00	1.261860e+00	1.278113e+00	1.214647e+00	1.094712e+00	1.034532e+00	9.631718e-01	8.843998e-01	8.304065e-01	7.783606e-01	7.265710e-01	6.919135e-01	6.676969e-01	6.460284e-01	6.344147e-01	6.273678e-01	6.204440e-01	6.210715e-01	6.213423e-01	6.208635e-01	6.237437e-01	6.261262e-01	6.281492e-01	6.313159e-01	6.324842e-01	6.357029e-01	6.372986e-01	6.353571e-01	6.324587e-01	6.241103e-01	6.077901e-01	5.838110e-01	5.491145e-01	5.012268e-01	4.461647e-01	3.800977e-01	2.966483e-01	1.867414e-01	1.615976e-02	
SCALARS Pressure_Coefficient double 1
LOOKUP_TABLE default