# vtk DataFile Version 3.0
vtk output
ASCII
DATASET UNSTRUCTURED_GRID
POINTS 1850 double
1.000000e+02	0.000000e+00	0.0	9.917900e+01	1.278772e+01	0.0	9.672949e+01	2.536546e+01	0.0	9.269168e+01	3.752670e+01	0.0	8.713187e+01	4.907176e+01	0.0	8.014136e+01	5.981105e+01	0.0	7.183494e+01	6.956826e+01	0.0	6.234898e+01	7.818315e+01	0.0	5.183926e+01	8.551428e+01	0.0	4.047833e+01	9.144126e+01	0.0	2.845276e+01	9.586679e+01	0.0	1.595999e+01	9.871818e+01	0.0	3.205158e+00	9.994862e+01	0.0	-9.602303e+00	9.953791e+01	0.0	-2.225209e+01	9.749279e+01	0.0	-3.453651e+01	9.384684e+01	0.0	-4.625383e+01	8.865993e+01	0.0	-5.721167e+01	8.201723e+01	0.0	-6.723009e+01	7.402780e+01	0.0	-7.614460e+01	6.482284e+01	0.0	-8.380881e+01	5.455349e+01	0.0	-9.009689e+01	4.338837e+01	0.0	-9.490557e+01	3.151082e+01	0.0	-9.815592e+01	1.911586e+01	0.0	-9.979454e+01	6.407022e+00	0.0	-9.979454e+01	-6.407022e+00	0.0	-9.815592e+01	-1.911586e+01	0.0	-9.490557e+01	-3.151082e+01	0.0	-9.009689e+01	-4.338837e+01	0.0	-8.380881e+01	-5.455349e+01	0.0	-7.614460e+01	-6.482284e+01	0.0	-6.723009e+01	-7.402780e+01	0.0	-5.721167e+01	-8.201723e+01	0.0	-4.625383e+01	-8.865993e+01	0.0	-3.453651e+01	-9.384684e+01	0.0	-2.225209e+01	-9.749279e+01	0.0	-9.602303e+00	-9.953791e+01	0.0	3.205158e+00	-9.994862e+01	0.0	1.595999e+01	-9.871818e+01	0.0	2.845276e+01	-9.586679e+01	0.0	4.047833e+01	-9.144126e+01	0.0	5.183926e+01	-8.551428e+01	0.0	6.234898e+01	-7.818315e+01	0.0	7.183494e+01	-6.956826e+01	0.0	8.014136e+01	-5.981105e+01	0.0	8.713187e+01	-4.907176e+01	0.0	9.269168e+01	-3.752670e+01	0.0	9.672949e+01	-2.536546e+01	0.0	9.917900e+01	-1.278772e+01	0.0	0.000000e+00	0.000000e+00	0.0	3.427600e-03	3.640269e-03	0.0	7.142287e-03	7.223582e-03	0.0	1.167765e-02	1.011285e-02	0.0	1.647225e-02	1.293678e-02	0.0	2.170055e-02	1.538811e-02	0.0	2.715194e-02	1.784190e-02	0.0	3.289418e-02	2.015413e-02	0.0	3.886811e-02	2.246010e-02	0.0	4.512217e-02	2.464329e-02	0.0	5.165344e-02	2.668273e-02	0.0	5.849593e-02	2.848087e-02	0.0	6.566932e-02	2.980554e-02	0.0	7.313485e-02	3.086676e-02	0.0	8.091025e-02	3.102227e-02	0.0	8.892751e-02	3.101513e-02	0.0	9.718634e-02	3.075316e-02	0.0	1.056936e-01	3.063500e-02	0.0	1.144501e-01	3.059402e-02	0.0	1.234434e-01	3.099447e-02	0.0	1.326824e-01	3.155685e-02	0.0	1.421466e-01	3.241940e-02	0.0	1.518404e-01	3.353465e-02	0.0	1.617765e-01	3.472691e-02	0.0	1.719173e-01	3.626979e-02	0.0	1.823030e-01	3.784994e-02	0.0	1.929043e-01	3.963108e-02	0.0	2.037247e-01	4.157360e-02	0.0	2.147805e-01	4.355837e-02	0.0	2.260542e-01	4.565853e-02	0.0	2.375537e-01	4.780284e-02	0.0	2.492967e-01	4.985585e-02	0.0	2.612935e-01	5.172095e-02	0.0	2.734993e-01	5.361855e-02	0.0	2.859860e-01	5.489760e-02	0.0	2.986879e-01	5.602850e-02	0.0	3.115887e-01	5.689790e-02	0.0	3.247046e-01	5.695066e-02	0.0	3.379874e-01	5.700410e-02	0.0	3.514216e-01	5.671021e-02	0.0	3.649986e-01	5.628465e-02	0.0	3.787096e-01	5.594782e-02	0.0	3.925461e-01	5.593878e-02	0.0	4.064898e-01	5.592967e-02	0.0	4.204872e-01	5.682604e-02	0.0	4.345487e-01	5.808173e-02	0.0	4.486493e-01	5.955640e-02	0.0	4.627044e-01	6.181214e-02	0.0	4.767960e-01	6.407374e-02	0.0	4.909378e-01	6.615169e-02	0.0	5.050993e-01	6.814838e-02	0.0	5.192779e-01	6.985560e-02	0.0	5.335441e-01	7.025976e-02	0.0	5.477733e-01	7.066287e-02	0.0	5.618611e-01	6.943670e-02	0.0	5.758431e-01	6.748508e-02	0.0	5.896998e-01	6.530598e-02	0.0	6.032387e-01	6.197049e-02	0.0	6.166734e-01	5.866065e-02	0.0	6.299492e-01	5.521509e-02	0.0	6.430670e-01	5.168806e-02	0.0	6.560450e-01	4.819859e-02	0.0	6.690422e-01	4.546008e-02	0.0	6.818797e-01	4.277149e-02	0.0	6.946055e-01	4.047870e-02	0.0	7.072437e-01	3.877832e-02	0.0	7.196880e-01	3.710403e-02	0.0	7.319841e-01	3.594517e-02	0.0	7.440798e-01	3.489871e-02	0.0	7.559636e-01	3.394563e-02	0.0	7.676342e-01	3.314830e-02	0.0	7.790751e-01	3.236665e-02	0.0	7.902764e-01	3.152916e-02	0.0	8.012390e-01	3.070630e-02	0.0	8.119507e-01	2.979437e-02	0.0	8.224136e-01	2.885279e-02	0.0	8.326204e-01	2.783931e-02	0.0	8.425676e-01	2.673670e-02	0.0	8.522606e-01	2.561792e-02	0.0	8.616820e-01	2.434605e-02	0.0	8.708548e-01	2.310774e-02	0.0	8.797592e-01	2.176134e-02	0.0	8.884127e-01	2.042179e-02	0.0	8.968151e-01	1.908120e-02	0.0	9.049630e-01	1.770723e-02	0.0	9.128708e-01	1.637376e-02	0.0	9.205323e-01	1.502971e-02	0.0	9.279577e-01	1.371679e-02	0.0	9.351498e-01	1.243262e-02	0.0	9.421108e-01	1.116829e-02	0.0	9.488479e-01	9.944058e-03	0.0	9.553602e-01	8.732006e-03	0.0	9.616572e-01	7.560048e-03	0.0	9.677389e-01	6.405823e-03	0.0	9.736134e-01	5.287075e-03	0.0	9.792817e-01	4.185427e-03	0.0	9.847512e-01	3.113509e-03	0.0	9.900252e-01	2.063474e-03	0.0	9.951074e-01	1.029597e-03	0.0	1.000000e+00	0.000000e+00	0.0	9.950041e-01	2.004515e-04	0.0	9.898202e-01	3.922860e-04	0.0	9.844423e-01	5.377627e-04	0.0	9.788662e-01	6.413776e-04	0.0	9.730873e-01	7.220227e-04	0.0	9.671008e-01	7.471206e-04	0.0	9.609026e-01	7.496740e-04	0.0	9.544882e-01	6.869615e-04	0.0	9.478531e-01	6.081866e-04	0.0	9.409946e-01	4.319153e-04	0.0	9.339069e-01	2.497538e-04	0.0	9.265899e-01	-4.691533e-05	0.0	9.190372e-01	-3.784640e-04	0.0	9.112507e-01	-8.210244e-04	0.0	9.032320e-01	-1.449999e-03	0.0	8.949681e-01	-2.098207e-03	0.0	8.865058e-01	-3.216652e-03	0.0	8.778023e-01	-4.432394e-03	0.0	8.689064e-01	-5.992690e-03	0.0	8.598478e-01	-8.065531e-03	0.0	8.505420e-01	-1.019494e-02	0.0	8.412070e-01	-1.317682e-02	0.0	8.316336e-01	-1.624598e-02	0.0	8.218506e-01	-1.948550e-02	0.0	8.118475e-01	-2.285840e-02	0.0	8.015540e-01	-2.613087e-02	0.0	7.908978e-01	-2.905713e-02	0.0	7.800081e-01	-3.204752e-02	0.0	7.686369e-01	-3.394434e-02	0.0	7.570250e-01	-3.583020e-02	0.0	7.451286e-01	-3.727963e-02	0.0	7.329652e-01	-3.838026e-02	0.0	7.205877e-01	-3.949499e-02	0.0	7.079994e-01	-4.057271e-02	0.0	6.952133e-01	-4.166736e-02	0.0	6.822793e-01	-4.314537e-02	0.0	6.691978e-01	-4.492474e-02	0.0	6.559520e-01	-4.674763e-02	0.0	6.426678e-01	-4.931286e-02	0.0	6.292395e-01	-5.190592e-02	0.0	6.156700e-01	-5.447726e-02	0.0	6.019710e-01	-5.701956e-02	0.0	5.881650e-01	-5.958171e-02	0.0	5.741214e-01	-6.118598e-02	0.0	5.599887e-01	-6.274282e-02	0.0	5.457514e-01	-6.352035e-02	0.0	5.314151e-01	-6.333645e-02	0.0	5.170413e-01	-6.315208e-02	0.0	5.026897e-01	-6.201203e-02	0.0	4.883318e-01	-6.084730e-02	0.0	4.739712e-01	-5.982551e-02	0.0	4.596229e-01	-5.894946e-02	0.0	4.453119e-01	-5.810869e-02	0.0	4.310413e-01	-5.875403e-02	0.0	4.168377e-01	-5.939635e-02	0.0	4.028040e-01	-6.090394e-02	0.0	3.889382e-01	-6.312015e-02	0.0	3.751832e-01	-6.533764e-02	0.0	3.616350e-01	-6.801897e-02	0.0	3.482189e-01	-7.067416e-02	0.0	3.348942e-01	-7.300043e-02	0.0	3.216737e-01	-7.500264e-02	0.0	3.086207e-01	-7.697950e-02	0.0	2.956105e-01	-7.748906e-02	0.0	2.827861e-01	-7.795544e-02	0.0	2.701738e-01	-7.774745e-02	0.0	2.577836e-01	-7.678460e-02	0.0	2.456072e-01	-7.583836e-02	0.0	2.337882e-01	-7.382940e-02	0.0	2.222021e-01	-7.179067e-02	0.0	2.109160e-01	-6.946738e-02	0.0	1.999789e-01	-6.665516e-02	0.0	1.892764e-01	-6.390326e-02	0.0	1.789218e-01	-6.082476e-02	0.0	1.688399e-01	-5.769540e-02	0.0	1.590016e-01	-5.462736e-02	0.0	1.494392e-01	-5.152398e-02	0.0	1.401177e-01	-4.849879e-02	0.0	1.309996e-01	-4.567537e-02	0.0	1.220769e-01	-4.307903e-02	0.0	1.133971e-01	-4.055337e-02	0.0	1.048496e-01	-3.852143e-02	0.0	9.652380e-02	-3.663146e-02	0.0	8.842133e-02	-3.488700e-02	0.0	8.051834e-02	-3.339103e-02	0.0	7.285431e-02	-3.194030e-02	0.0	6.543553e-02	-3.048614e-02	0.0	5.825000e-02	-2.907292e-02	0.0	5.136384e-02	-2.739937e-02	0.0	4.473419e-02	-2.563358e-02	0.0	3.844397e-02	-2.354289e-02	0.0	3.243147e-02	-2.130707e-02	0.0	2.681226e-02	-1.870342e-02	0.0	2.145219e-02	-1.604035e-02	0.0	1.651021e-02	-1.304384e-02	0.0	1.183197e-02	-1.001413e-02	0.0	7.447571e-03	-6.896492e-03	0.0	3.439567e-03	-3.606193e-03	0.0	9.060039e-01	-6.327822e-03	0.0	8.994048e-01	-7.867090e-03	0.0	9.046391e-01	-1.320024e-02	0.0	8.587396e+01	2.665205e+01	0.0	8.175379e+01	2.040085e+01	0.0	8.841806e+01	1.735480e+01	0.0	7.405256e+01	-1.341436e+01	0.0	7.560493e+01	-2.514238e+01	0.0	8.637845e+01	-1.830131e+01	0.0	8.576481e+01	-5.030370e+00	0.0	3.713381e+01	2.358836e+01	0.0	4.636086e+01	2.892868e+01	0.0	3.671995e+01	3.613707e+01	0.0	8.062033e+01	3.580347e+01	0.0	6.791392e+01	3.511999e+01	0.0	7.458201e+01	2.477708e+01	0.0	6.870289e+01	-3.578973e+01	0.0	7.561035e+01	-4.380219e+01	0.0	8.115177e+01	-3.649624e+01	0.0	8.660672e+01	-2.850101e+01	0.0	5.650195e+01	3.194745e+01	0.0	5.785222e+01	4.221118e+01	0.0	4.859312e+01	3.818101e+01	0.0	5.578605e+01	-5.337629e+01	0.0	6.221539e+01	-5.989972e+01	0.0	6.569347e+01	-5.452373e+01	0.0	6.915230e+01	5.965473e+01	0.0	7.330666e+01	5.136637e+01	0.0	5.975775e+01	6.475719e+01	0.0	4.873749e+01	-6.419106e+01	0.0	4.621823e+01	-7.371243e+01	0.0	5.466136e+01	-7.212250e+01	0.0	6.644427e+01	-4.648958e+01	0.0	4.880052e+01	7.187331e+01	0.0	3.113668e+01	6.379433e+01	0.0	2.601346e+01	5.577928e+01	0.0	3.555787e+01	5.613513e+01	0.0	5.667963e+01	-6.352721e+01	0.0	2.539542e+01	7.294989e+01	0.0	3.827004e+01	8.012358e+01	0.0	2.418165e+01	8.667267e+01	0.0	3.761932e+01	-6.721201e+01	0.0	2.638955e+01	-7.564567e+01	0.0	3.854467e+01	-8.000812e+01	0.0	-4.978546e+00	6.075189e+01	0.0	-3.223586e+00	4.644925e+01	0.0	5.944999e+00	5.185036e+01	0.0	2.206685e+01	4.817441e+01	0.0	1.628762e+01	5.433155e+01	0.0	1.359641e+01	4.486887e+01	0.0	8.346957e+00	8.935933e+01	0.0	1.147907e+01	7.743132e+01	0.0	2.612555e+00	4.846592e+00	0.0	1.797036e+00	3.257605e+00	0.0	3.243151e+00	3.175309e+00	0.0	1.204345e+00	2.579053e+00	0.0	1.678978e+00	2.080085e+00	0.0	9.908923e-01	2.509125e-01	0.0	1.114305e+00	2.414834e-01	0.0	1.031802e+00	3.565845e-01	0.0	1.174994e+00	1.371696e-01	0.0	1.098434e+00	1.555595e-01	0.0	1.054577e+00	1.110347e-01	0.0	9.954966e-01	1.250717e-01	0.0	1.019308e+00	9.993817e-02	0.0	1.004063e+00	9.524731e-05	0.0	1.002500e+00	4.667664e-03	0.0	9.976985e-01	3.781196e-03	0.0	9.974804e-01	7.964715e-03	0.0	9.811526e-01	2.183087e-02	0.0	9.906146e-01	2.110544e-02	0.0	9.857008e-01	2.887685e-02	0.0	9.935709e-01	5.218547e-03	0.0	9.758643e-01	9.371799e-03	0.0	9.814157e-01	1.003962e-02	0.0	9.711702e-01	9.065600e-03	0.0	9.499345e-01	3.302135e-02	0.0	9.440775e-01	2.864450e-02	0.0	9.
[...]
POINT_DATA 1850

SCALARS Density double 1
LOOKUP_TABLE default
1.291630e+00	1.291705e+00	1.292066e+00	1.292207e+00	1.292164e+00	1.292118e+00	1.292097e+00	1.292072e+00	1.292035e+00	1.292003e+00	1.291978e+00	1.291968e+00	1.291976e+00	1.292014e+00	1.292067e+00	1.292123e+00	1.292169e+00	1.292205e+00	1.292233e+00	1.292253e+00	1.292267e+00	1.292278e+00	1.292285e+00	1.292293e+00	1.292298e+00	1.292305e+00	1.292312e+00	1.292320e+00	1.292331e+00	1.292344e+00	1.292362e+00	1.292385e+00	1.292415e+00	1.292449e+00	1.292489e+00	1.292538e+00	1.292584e+00	1.292617e+00	1.292620e+00	1.292600e+00	1.292565e+00	1.292519e+00	1.292474e+00	1.292429e+00	1.292381e+00	1.292345e+00	1.292363e+00	1.292285e+00	1.291961e+00	1.525900e+00	1.146663e+00	1.162929e+00	1.118484e+00	1.101229e+00	1.086014e+00	1.082934e+00	1.062964e+00	1.034520e+00	9.892532e-01	9.334771e-01	8.471299e-01	7.731995e-01	6.782454e-01	6.030143e-01	5.712417e-01	6.296502e-01	8.583197e-01	1.157999e+00	1.205143e+00	1.202152e+00	1.203657e+00	1.196389e+00	1.193274e+00	1.185545e+00	1.172753e+00	1.164518e+00	1.146339e+00	1.125835e+00	1.104773e+00	1.073756e+00	1.036639e+00	1.005628e+00	9.557969e-01	9.083791e-01	8.856638e-01	8.610965e-01	9.079609e-01	1.016158e+00	1.081590e+00	1.126939e+00	1.162429e+00	1.179214e+00	1.199027e+00	1.209407e+00	1.192677e+00	1.185368e+00	1.159077e+00	1.107015e+00	1.061909e+00	1.009151e+00	9.120794e-01	8.421943e-01	7.662924e-01	6.701452e-01	6.253632e-01	5.684745e-01	5.295116e-01	5.895975e-01	8.638788e-01	1.088481e+00	1.132409e+00	1.149414e+00	1.156755e+00	1.170527e+00	1.171799e+00	1.172423e+00	1.174607e+00	1.169966e+00	1.169546e+00	1.167454e+00	1.162891e+00	1.162044e+00	1.160978e+00	1.159562e+00	1.160849e+00	1.160852e+00	1.163679e+00	1.165105e+00	1.168942e+00	1.173413e+00	1.176879e+00	1.182855e+00	1.186571e+00	1.191319e+00	1.195898e+00	1.199715e+00	1.204339e+00	1.207642e+00	1.211506e+00	1.214733e+00	1.218193e+00	1.221339e+00	1.224422e+00	1.227550e+00	1.230123e+00	1.233324e+00	1.238288e+00	1.227163e+00	1.244688e+00	1.392404e+00	1.345806e+00	1.356669e+00	1.359850e+00	1.363108e+00	1.366615e+00	1.369351e+00	1.373045e+00	1.375546e+00	1.378807e+00	1.382178e+00	1.384847e+00	1.391497e+00	1.391565e+00	1.399621e+00	1.402621e+00	1.400035e+00	1.405484e+00	1.396386e+00	1.397813e+00	1.389948e+00	1.364768e+00	1.346296e+00	1.316760e+00	1.278351e+00	1.251016e+00	1.196021e+00	1.169803e+00	1.173646e+00	1.169399e+00	1.191235e+00	1.211717e+00	1.226710e+00	1.248867e+00	1.263852e+00	1.260138e+00	1.268738e+00	1.260753e+00	1.230418e+00	1.206374e+00	1.176083e+00	1.116030e+00	1.063376e+00	1.015852e+00	9.907612e-01	1.029860e+00	1.067734e+00	1.119185e+00	1.188104e+00	1.228674e+00	1.256918e+00	1.304103e+00	1.317538e+00	1.314586e+00	1.323767e+00	1.302155e+00	1.284834e+00	1.268359e+00	1.229569e+00	1.114741e+00	8.360549e-01	6.938369e-01	7.057707e-01	7.793341e-01	8.097836e-01	8.757840e-01	9.096291e-01	9.716640e-01	1.048407e+00	1.073816e+00	1.126967e+00	1.170270e+00	1.203623e+00	1.250990e+00	1.283120e+00	1.311402e+00	1.342832e+00	1.368978e+00	1.382671e+00	1.403425e+00	1.417216e+00	1.414536e+00	1.420057e+00	1.417798e+00	1.409560e+00	1.407398e+00	1.396501e+00	1.391671e+00	1.393300e+00	1.400475e+00	1.417355e+00	1.443846e+00	1.476026e+00	1.510029e+00	1.550357e+00	1.584005e+00	1.603252e+00	1.674704e+00	1.396081e+00	1.398163e+00	1.396218e+00	1.292118e+00	1.292005e+00	1.291960e+00	1.292133e+00	1.292301e+00	1.292178e+00	1.291882e+00	1.292017e+00	1.292080e+00	1.291964e+00	1.292143e+00	1.292139e+00	1.292110e+00	1.292353e+00	1.292345e+00	1.292321e+00	1.292301e+00	1.292096e+00	1.292067e+00	1.292043e+00	1.292432e+00	1.292431e+00	1.292402e+00	1.292092e+00	1.292103e+00	1.292059e+00	1.292495e+00	1.292523e+00	1.292486e+00	1.292371e+00	1.292022e+00	1.291924e+00	1.291870e+00	1.291935e+00	1.292460e+00	1.291916e+00	1.291979e+00	1.291949e+00	1.292558e+00	1.292617e+00	1.292564e+00	1.291808e+00	1.291648e+00	1.291703e+00	1.291789e+00	1.291771e+00	1.291670e+00	1.291941e+00	1.291895e+00	1.286533e+00	1.283205e+00	1.288494e+00	1.276859e+00	1.281642e+00	1.289803e+00	1.303581e+00	1.289649e+00	1.311723e+00	1.318079e+00	1.305048e+00	1.299377e+00	1.302162e+00	1.266979e+00	1.249159e+00	1.238440e+00	1.238035e+00	1.245445e+00	1.250366e+00	1.254739e+00	1.247317e+00	1.232596e+00	1.236623e+00	1.228877e+00	1.237907e+00	1.229010e+00	1.231696e+00	1.224703e+00	1.219105e+00	1.218525e+00	1.213599e+00	1.220299e+00	1.204056e+00	1.207766e+00	1.199882e+00	1.395240e+00	1.391073e+00	1.406903e+00	1.409135e+00	1.391490e+00	1.413069e+00	1.424714e+00	1.417150e+00	1.075505e+00	1.055013e+00	1.031420e+00	1.003988e+00	9.795144e-01	9.230910e-01	8.613609e-01	1.086151e+00	1.126370e+00	1.044209e+00	1.200150e+00	1.205391e+00	1.197582e+00	9.022163e-01	9.735494e-01	9.917636e-01	1.188255e+00	1.185699e+00	7.576277e-01	6.796683e-01	7.469289e-01	1.202090e+00	1.192565e+00	1.186641e+00	1.176381e+00	1.159705e+00	1.252723e+00	1.230840e+00	1.204581e+00	1.163556e+00	1.168517e+00	1.170492e+00	1.169271e+00	1.179753e+00	1.129951e+00	1.146859e+00	1.127511e+00	1.223412e+00	1.239744e+00	1.216015e+00	1.222610e+00	1.245210e+00	1.227305e+00	1.043813e+00	1.130929e+00	1.154648e+00	1.112855e+00	1.104402e+00	1.077037e+00	1.046088e+00	1.185439e+00	1.205606e+00	1.189056e+00	1.155151e+00	1.202476e+00	1.186450e+00	1.167718e+00	1.250317e+00	1.215475e+00	1.264390e+00	1.272684e+00	1.258579e+00	1.188553e+00	1.177602e+00	1.176714e+00	1.230154e+00	1.257848e+00	1.080478e+00	8.707916e-01	1.019736e+00	1.280114e+00	1.265432e+00	1.289180e+00	1.195179e+00	1.182027e+00	1.204147e+00	9.271799e-01	1.050159e+00	9.999145e-01	1.203750e+00	1.218437e+00	1.229773e+00	1.192360e+00	1.190785e+00	1.204171e+00	1.190305e+00	1.186095e+00	1.179441e+00	1.184019e+00	1.179905e+00	1.171283e+00	1.175712e+00	1.202273e+00	1.207492e+00	1.210401e+00	1.204970e+00	1.217968e+00	1.239071e+00	1.259006e+00	1.240417e+00	1.177182e+00	1.178224e+00	1.182219e+00	1.183029e+00	1.280717e+00	1.288326e+00	1.282499e+00	1.193849e+00	1.200709e+00	1.200134e+00	1.200763e+00	1.209848e+00	7.627899e-01	8.132702e-01	7.215453e-01	1.272951e+00	1.291811e+00	1.285160e+00	1.021416e+00	9.766301e-01	9.450638e-01	1.302652e+00	1.315585e+00	1.307809e+00	1.301611e+00	8.816833e-01	8.101907e-01	8.272020e-01	8.810482e-01	8.726296e-01	1.007677e+00	9.414300e-01	9.900022e-01	1.243864e+00	1.266544e+00	1.276175e+00	1.203964e+00	1.195130e+00	1.157250e+00	1.211682e+00	1.208161e+00	1.371399e+00	1.372240e+00	1.374758e+00	1.195809e+00	1.199633e+00	1.220176e+00	1.221667e+00	1.230370e+00	1.170707e+00	1.172788e+00	1.153124e+00	1.166878e+00	1.291795e+00	8.976971e-01	7.329541e-01	1.046384e+00	1.291525e+00	1.291074e+00	1.290542e+00	1.292044e+00	1.292011e+00	1.187360e+00	1.176179e+00	1.135401e+00	1.185466e+00	1.188800e+00	1.198114e+00	1.148468e+00	1.110301e+00	1.136480e+00	1.145623e+00	1.160577e+00	1.179408e+00	1.160941e+00	9.350973e-01	1.003435e+00	9.379134e-01	1.214825e+00	1.227429e+00	1.218350e+00	1.078955e+00	1.103701e+00	1.231923e+00	1.229388e+00	1.160547e+00	1.223926e+00	1.240720e+00	1.231412e+00	9.649015e-01	1.004522e+00	9.871136e-01	9.339792e-01	9.420736e-01	9.086419e-01	1.184841e+00	1.194415e+00	1.149824e+00	1.174708e+00	1.156019e+00	1.204617e+00	1.198095e+00	1.217293e+00	1.240173e+00	1.195122e+00	9.920347e-01	9.155954e-01	1.111234e+00	1.153401e+00	1.292005e+00	1.291978e+00	1.202197e+00	1.199664e+00	1.201406e+00	1.293023e+00	1.292813e+00	1.291411e+00	1.292082e+00	1.009059e+00	1.193523e+00	1.283709e+00	1.287526e+00	1.288110e+00	6.761634e-01	6.079441e-01	1.292140e+00	9.522639e-01	1.022233e+00	1.059290e+00	1.291691e+00	1.292090e+00	1.291927e+00	1.292231e+00	1.292281e+00	1.292203e+00	1.292292e+00	1.292346e+00	1.292371e+00	1.188543e+00	1.262286e+00	1.292220e+00	1.292246e+00	1.292228e+00	9.926206e-01	1.058826e+00	9.779945e-01	1.292291e+00	1.292277e+00	1.292296e+00	1.292252e+00	1.292268e+00	1.292309e+00	1.292321e+00	1.292326e+00	1.292337e+00	1.292398e+00	1.292404e+00	1.292447e+00	1.292461e+00	1.292402e+00	1.292366e+00	1.292343e+00	1.292421e+00	1.292380e+00	1.292425e+00	1.292469e+00	1.293046e+00	1.293084e+00	1.292445e+00	1.293470e+00	1.294280e+00	1.296426e+00	1.368403e+00	1.366963e+00	1.349258e+00	1.292471e+00	1.292426e+00	1.392652e+00	1.292904e+00	1.292860e+00	1.292975e+00	1.295242e+00	1.294448e+00	1.295899e+00	1.292603e+00	1.292639e+00	1.292584e+00	1.261050e+00	1.298852e+00	1.299481e+00	1.297076e+00	1.292691e+00	1.292675e+00	1.292729e+00	1.316028e+00	1.323129e+00	1.313337e+00	1.444313e+00	1.465779e+00	1.283425e+00	1.270037e+00	1.254660e+00	1.369618e+00	1.357316e+00	1.356712e+00	1.445744e+00	1.423480e+00	1.424194e+00	1.414496e+00	1.410789e+00	1.406001e+00	1.203254e+00	1.236709e+00	1.217797e+00	1.280242e+00	1.210150e+00	1.189012e+00	1.193238e+00	1.381494e+00	1.386243e+00	1.394149e+00	1.398287e+00	1.380495e+00	1.391304e+00	1.386265e+00	1.396509e+00	1.399616e+00	1.398339e+00	1.412661e+00	1.511647e+00	1.532049e+00	1.500449e+00	1.360326e+00	1.364014e+00	1.389561e+00	1.431640e+00	1.413574e+00	1.342827e+00	1.331212e+00	1.324207e+00	1.350808e+00	1.363915e+00	1.414581e+00	1.410435e+00	1.616591e+00	1.571025e+00	1.575880e+00	1.295935e+00	1.297129e+00	1.294137e+00	1.293785e+00	1.293694e+00	1.081823e+00	1.056196e+00	1.035356e+00	1.404955e+00	1.393459e+00	1.397216e+00	1.374981e+00	1.372005e+00	1.292646e+00	1.292589e+00	1.292626e+00	1.308976e+00	1.295866e+00	1.280222e+00	1.277078e+00	1.304559e+00	1.193819e+00	1.179429e+00	1.159537e+00	1.123810e+00	1.178311e+00	1.200684e+00	1.295322e+00	1.296542e+00	1.286458e+00	1.283081e+00	1.292598e+00	1.292632e+00	1.243817e+00	1.242270e+00	1.220655e+00	1.258423e+00	1.274481e+00	1.258695e+00	1.263880e+00	1.262925e+00	1.235167e+00	1.244966e+00	1.218244e+00	1.262018e+00	1.255360e+00	1.247384e+00	1.369453e+00	1.370285e+00	1.357372e+00	1.359586e+00	1.382266e+00	1.333901e+00	1.350124e+00	1.330606e+00	1.384822e+00	1.386624e+00	1.388697e+00	1.384299e+00	1.384274e+00	1.380697e+00	1.390244e+00	1.390782e+00	1.393325e+00	1.394888e+00	1.387957e+00	1.292303e+00	1.049831e+00	1.211667e+00	1.191534e+00	1.292784e+00	1.292722e+00	1.292577e+00	1.366704e+00	1.362039e+00	1.362050e+00	1.292934e+00	1.293150e+00	1.292579e+00	1.292704e+00	1.292595e+00	1.292319e+00	1.292343e+00	1.292317e+00	1.292160e+00	1.292116e+00	1.292071e+00	1.292879e+00	1.292799e+00	1.292527e+00	1.292520e+00	1.292585e+00	1.291967e+00	1.291806e+00	1.291744e+00	1.291935e+00	1.292411e+00	1.292369e+00	1.291869e+00	1.292029e+00	1.292121e+00	1.293330e+00	1.293036e+00	1.293008e+00	1.292614e+00	1.292508e+00	1.049236e+00	1.100002e+00	1.072282e+00	1.292231e+00	1.292172e+00	1.292242e+00	1.292766e+00	1.293057e+00	1.291659e+00	1.291392e+00	1.291700e+00	1.292098e+00	1.290023e+00	1.290357e+00	1.290907e+00	1.291645e+00	1.292487e+00	1.292407e+00	1.292385e+00	1.292882e+00	1.292768e+00	1.292294e+00	1.292272e+00	1.292248e+00	1.292215e+00	1.291969e+00	1.291932e+00	1.292636e+00	1.292128e+00	1.292096e+00	1.292070e+00	1.292004e+00	1.291897e+00	1.291930e+00	1.291921e+00	1.291861e+00	1.292247e+00	1.292341e+00	1.292561e+00	1.292635e+00	1.292503e+00	1.292118e+00	1.291933e+00	1.292353e+00	1.182656e+00	1.219472e+00	1.291770e+00	1.291919e+00	1.292200e+00	1.291458e+00	1.291780e+00	1.292642e+00	1.292756e+00	1.292664e+00	1.292309e+00	1.293443e+00	1.293955e+00	1.293430e+00	1.294045e+00	1.293755e+00	1.292977e+00	1.293583e+00	1.291872e+00	1.292731e+00	1.292865e+00	1.293659e+00	1.294200e+00	1.292184e+00	1.292266e+00	1.292520e+00	1.292544e+00	1.292393e+00	1.291922e+00	1.292275e+00	1.292367e+00	1.292387e+00	1.292337e+00	1.292358e+00	1.292372e+00	1.292088e+00	1.292148e+00	1.292197e+00	1.291835e+00	1.291873e+00	1.292555e+00	1.292645e+00	1.291934e+00	1.292662e+00	1.292716e+00	1.292659e+00	1.292342e+00	1.292042e+00	1.292382e+00	1.292448e+00	1.292505e+00	1.292312e+00	1.291929e+00	1.292468e+00	1.292592e+00	1.292647e+00	1.292770e+00	1.292709e+00	1.292702e+00	1.291856e+00	1.291857e+00	1.292393e+00	1.292596e+00	1.292461e+00	1.292492e+00	1.292523e+00	1.292029e+00	1.291974e+00	1.291165e+00	1.291558e+00	1.108830e+00	1.292436e+00	1.292504e+00	1.292032e+00	1.291950e+00	1.291286e+00	1.290592e+00	8.612499e-01	1.181095e+00	1.088566e+00	1.292335e+00	1.291925e+00	1.292413e+00	1.292025e+00	1.292098e+00	1.292008e+00	1.292792e+00	1.291803e+00	1.291456e+00	1.292041e+00	1.292582e+00	1.292068e+00	1.292005e+00	1.292694e+00	1.292039e+00	1.292023e+00	1.291981e+00	1.292614e+00	1.292407e+00	1.292447e+00	1.292436e+00	1.291634e+00	1.292229e+00	1.292038e+00	1.290114e+00	1.288893e+00	1.290554e+00	1.292013e+00	1.291840e+00	1.292330e+00	1.292872e+00	1.293384e+00	1.293104e+00	1.292932e+00	1.293481e+00	1.292979e+00	1.292496e+00	1.370688e+00	1.359494e+00	1.303687e+00	1.307299e+00	1.303298e+00	1.292181e+00	1.290569e+00	1.291919e+00	1.293989e+00	1.293310e+00	1.291350e+00	1.290719e+00	1.290652e+00	1.294848e+00	1.294281e+00	1.292564e+00	1.291270e+00	1.290533e+00	1.291929e+00	1.289542e+00	1.294950e+00	1.294453e+00	1.395893e+00	1.403062e+00	1.292424e+00	1.290843e+00	1.290466e+00	1.292151e+00	1.291414e+00	1.292731e+00	1.343528e+00	1.346956e+00	1.332795e+00	1.290069e+00	1.291153e+00	1.292094e+00	1.295230e+00	1.291624e+00	1.289500e+00	1.283774e+00	1.286819e+00	1.288721e+00	1.288904e+00	1.053219e+00	1.295917e+00	1.284620e+00	1.294107e+00	1.290667e+00	1.295317e+00	1.294130e+00	1.296070e+00	1.287487e+00	1.291723e+00	1.295054e+00	1.296410e+00	1.295732e+00	1.297371e+00	1.296719e+00	1.317973e+00	1.289247e+00	1.360837e+00	1.295440e+00	1.277780e+00	1.288851e+00	1.286390e+00	1.291040e+00	1.259395e+00	1.576421e+00	1.299918e+00	1.298234e+00	1.297441e+00	1.290367e+00	1.292615e+00	1.292855e+00	1.297897e+00	1.300899e+00	1.299476e+00	1.297527e+00	1.296051e+00	1.296777e+00	1.298339e+00	1.310435e+00	1.344574e+00	1.309435e+00	1.192381e+00	1.204518e+00	1.198113e+00	1.287923e+00	1.286093e+00	1.286046e+00	1.303200e+00	1.295756e+00	1.303346e+00	1.306829e+00	1.307978e+00	1.296959e+00	1.273532e+00	1.268450e+00	1.251884e+00	1.282461e+00	1.294638e+00	1.302540e+00	1.136647e+00	1.145985e+00	1.300534e+00	1.297159e+00	1.304573e+00	1.286366e+00	1.298452e+00	1.287650e+00	1.302201e+00	1.297290e+00	1.304513e+00	1.238831e+00	1.274718e+00	1.266482e+00	1.293619e+00	1.298844e+00	1.288140e+00	1.297505e+00	1.299787e+00	1.303996e+00	1.313644e+00	1.308023e+00	1.306662e+00	1.091620e+00	1.105584e+00	1.553487e+00	1.542191e+00	1.570833e+00	1.277407e+00	1.365372e+00	1.298144e+00	1.292107e+00	1.289830e+00	1.283070e+00	1.297908e+00	1.293676e+00	1.284027e+00	1.274245e+00	1.317174e+00	1.294274e+00	1.257030e+00	1.180972e+00	1.068976e+00	9.061043e-01	1.320180e+00	1.310307e+00	1.310421e+00	1.189096e+00	1.185002e+00	1.296255e+00	1.255753e+00	1.240377e+00	1.300946e+00	1.243464e+00	1.306963e+00	1.272191e+00	6.742079e-01	1.293946e+00	1.387600e+00	1.302195e+00	1.262872e+00	1.286136e+00	1.304090e+00	1.315748e+00	1.290585e+00	1.320620e+00	1.282754e+00	1.249155e+00	1.284819e+00	1.295443e+00	1.276035e+00	1.288653e+00	1.318938e+00	1.345346e+00	1.273221e+00	1.219736e+00	7.599395e-01	8.518868e-01	8.825716e-01	1.304473e+00	1.280904e+00	1.310836e+00	1.309321e+00	1.299270e+00	1.282131e+00	1.265351e+00	1.238881e+00	1.260072e+00	1.210957e+00	5.891313e-01	1.199007e+00	1.311692e+00	1.334001e+00	1.351126e+00	1.365397e+00	1.349167e+00	1.310895e+00	1.321800e+00	1.318306e+00	1.190161e+00	1.327561e+00	1.317714e+00	1.322145e+00	1.313993e+00	1.260451e+00	1.298077e+00	1.315979e+00	1.330293e+00	1.297335e+00	1.303670e+00	1.146286e+00	1.116280e+00	1.106142e+00	1.160713e+00	1.261519e+00	1.255958e+00	1.242481e+00	1.310711e+00	1.334538e+00	1.395428e+00	1.386952e+00	1.409044e+00	1.106521e+00	1.150751e+00	1.208421e+00	1.257548e+00	1.238209e+00	1.261624e+00	1.247822e+00	1.393840e+00	1.319264e+00	1.281720e+00	1.332949e+00	1.292406e+00	8.056528e-01	7.228566e-01	8.176996e-01	1.306304e+00	1.159565e+00	1.317311e+00	1.205160e+00	1.211107e+00	1.235734e+00	9.297938e-01	5.535347e-01	1.352341e+00	1.465782e+00	1.500295e+00	1.484561e+00	1.289681e+00	1.315890e+00	1.320329e+00	1.320197e+00	1.227684e+00	1.205011e+00	1.229146e+00	1.282779e+00	1.275646e+00	1.294229e+00	1.256728e+00	1.259047e+00	1.239679e+00	1.292378e+00	1.321019e+00	1.334400e+00	1.243208e+00	1.240341e+00	1.290797e+00	1.302547e+00	1.377591e+00	1.400134e+00	1.400750e+00	1.336328e+00	1.352893e+00	1.234312e+00	1.138608e+00	1.142261e+00	1.039196e+00	1.073622e+00	1.191166e+00	1.177808e+00	1.180076e+00	1.082840e+00	1.175896e+00	1.297598e+00	1.288466e+00	1.282552e+00	1.282840e+00	1.162483e+00	1.141946e+00	1.350654e+00	1.328341e+00	1.328088e+00	1.195178e+00	1.259028e+00	1.318758e+00	1.403214e+00	1.275511e+00	1.336550e+00	1.299774e+00	1.303238e+00	1.353037e+00	1.354071e+00	1.136926e+00	1.113366e+00	1.190114e+00	1.293720e+00	1.555643e+00	1.545599e+00	1.312220e+00	1.273109e+00	1.287348e+00	1.375089e+00	1.392110e+00	1.328542e+00	1.292847e+00	1.358737e+00	1.356308e+00	1.338303e+00	1.193529e+00	1.300473e+00	1.128411e+00	1.173522e+00	1.164307e+00	1.099156e+00	1.128851e+00	1.114761e+00	1.087351e+00	1.038900e+00	1.073742e+00	1.182975e+00	1.284803e+00	1.130124e+00	1.245480e+00	7.046465e-01	7.874353e-01	1.128407e+00	1.251024e+00	1.263517e+00	1.247022e+00	1.328175e+00	1.298817e+00	1.523852e+00	1.254007e+00	8.336257e-01	9.107892e-01	8.136490e-01	6.418510e-01	6.746101e-01	6.429166e-01	1.215421e+00	1.261010e+00	1.068999e+00	1.171573e+00	1.189555e+00	1.201101e+00	1.178592e+00	1.131652e+00	1.170282e+00	1.191561e+00	1.307642e+00	1.234920e+00	1.225736e+00	1.226385e+00	1.237232e+00	1.224931e+00	1.246334e+00	1.456552e+00	1.464272e+00	1.431371e+00	1.367453e+00	1.403886e+00	1.284943e+00	1.226686e+00	1.223413e+00	1.283630e+00	1.280003e+00	1.309068e+00	1.348597e+00	1.368519e+00	1.353071e+00	1.372819e+00	1.408859e+00	1.343449e+00	1.259269e+00	1.250799e+00	1.249149e+00	1.257974e+00	1.334295e+00	1.346143e+00	1.335780e+00	1.428406e+00	1.118119e+00	1.158520e+00	1.009450e+00	1.062078e+00	1.113270e+00	1.371164e+00	1.366789e+00	1.366104e+00	1.366179e+00	1.075337e+00	1.328438e+00	1.337733e+00	1.249052e+00	8.224055e-01	7.404443e-01	1.258569e+00	1.237110e+00	1.291560e+00	1.304918e+00	1.220986e+00	1.132472e+00	1.269388e+00	1.258664e+00	1.259526e+00	1.338865e+00	1.415452e+00	1.416051e+00	1.381991e+00	1.211748e+00	1.197835e+00	1.223648e+00	1.429603e+00	1.201340e+00	1.152760e+00	1.127831e+00	1.130694e+00	1.116240e+00	1.314474e+00	1.313098e+00	1.229796e+00	1.264200e+00	1.273213e+00	1.225036e+00	1.239052e+00	1.382097e+00	1.373027e+00	1.173012e+00	1.026886e+00	1.187635e+00	1.495629e+00	1.262167e+00	1.255911e+00	1.358033e+00	7.476535e-01	1.411630e+00	1.448817e+00	1.417565e+00	1.320564e+00	1.201272e+00	1.275082e+00	8.994074e-01	1.142722e+00	1.101934e+00	1.267583e+00	1.218458e+00	1.230777e+00	1.369463e+00	1.384842e+00	1.404016e+00	1.405118e+00	1.190063e+00	1.169807e+00	1.163248e+00	8.439230e-01	1.023817e+00	1.098097e+00	1.420781e+00	9.857178e-01	1.143863e+00	1.106348e+00	1.163022e+00	1.142615e+00	1.222915e+00	1.264815e+00	1.260245e+00	1.028929e+00	1.354560e+00	1.380459e+00	1.304392e+00	1.299438e+00	1.310934e+00	1.270540e+00	1.263392e+00	1.276051e+00	1.331767e+00	1.288024e+00	1.284377e+00	1.385039e+00	1.116169e+00	1.493806e+00	1.231287e+00	1.290452e+00	1.032760e+00	8.291858e-01	5.856595e-01	1.437731e+00	1.166428e+00	1.207115e+00	1.084979e+00	1.068209e+00	1.278314e+00	1.263762e+00	1.261541e+00	1.376136e+00	1.391170e+00	1.481878e+00	1.362094e+00	1.350053e+00	1.455781e+00	1.357915e+00	1.201327e+00	1.209419e+00	1.226110e+00	1.189298e+00	1.192697e+00	1.179513e+00	1.252946e+00	1.155368e+00	1.203906e+00	1.167252e+00	1.140169e+00	1.346300e+00	1.370112e+00	1.297595e+00	1.314550e+00	1.054826e+00	1.094684e+00	1.112702e+00	1.068064e+00	1.072025e+00	1.199642e+00	1.242315e+00	1.243367e+00	1.231530e+00	1.141481e+00	1.167508e+00	1.169641e+00	1.340162e+00	1.376233e+00	1.384037e+00	1.101278e+00	1.124095e+00	1.037329e+00	9.722677e-01	1.060902e+00	1.170689e+00	1.179997e+00	1.185445e+00	1.195094e+00	1.191769e+00	1.262518e+00	1.262963e+00	1.224894e+00	9.449982e-01	1.352464e+00	1.358222e+00	1.364612e+00	1.248855e+00	1.270411e+00	1.217448e+00	9.162967e-01	1.165387e+00	1.237954e+00	1.347241e+00	1.221928e+00	1.128519e+00	1.135388e+00	1.181348e+00	1.618004e+00	1.562925e+00	1.196096e+00	1.209473e+00	1.170008e+00	1.017895