# vtk DataFile Version 3.0
vtk output
ASCII
DATASET UNSTRUCTURED_GRID
POINTS 198 double
0.000000e+00	0.000000e+00	0.0	3.427600e-03	3.640269e-03	0.0	7.142287e-03	7.223582e-03	0.0	1.167765e-02	1.011285e-02	0.0	1.647225e-02	1.293678e-02	0.0	2.170055e-02	1.538811e-02	0.0	2.715194e-02	1.784190e-02	0.0	3.289418e-02	2.015413e-02	0.0	3.886811e-02	2.246010e-02	0.0	4.512217e-02	2.464329e-02	0.0	5.165344e-02	2.668273e-02	0.0	5.849593e-02	2.848087e-02	0.0	6.566932e-02	2.980554e-02	0.0	7.313485e-02	3.086676e-02	0.0	8.091025e-02	3.102227e-02	0.0	8.892751e-02	3.101513e-02	0.0	9.718634e-02	3.075316e-02	0.0	1.056936e-01	3.063500e-02	0.0	1.144501e-01	3.059402e-02	0.0	1.234434e-01	3.099447e-02	0.0	1.326824e-01	3.155685e-02	0.0	1.421466e-01	3.241940e-02	0.0	1.518404e-01	3.353465e-02	0.0	1.617765e-01	3.472691e-02	0.0	1.719173e-01	3.626979e-02	0.0	1.823030e-01	3.784994e-02	0.0	1.929043e-01	3.963108e-02	0.0	2.037247e-01	4.157360e-02	0.0	2.147805e-01	4.355837e-02	0.0	2.260542e-01	4.565853e-02	0.0	2.375537e-01	4.780284e-02	0.0	2.492967e-01	4.985585e-02	0.0	2.612935e-01	5.172095e-02	0.0	2.734993e-01	5.361855e-02	0.0	2.859860e-01	5.489760e-02	0.0	2.986879e-01	5.602850e-02	0.0	3.115887e-01	5.689790e-02	0.0	3.247046e-01	5.695066e-02	0.0	3.379874e-01	5.700410e-02	0.0	3.514216e-01	5.671021e-02	0.0	3.649986e-01	5.628465e-02	0.0	3.787096e-01	5.594782e-02	0.0	3.925461e-01	5.593878e-02	0.0	4.064898e-01	5.592967e-02	0.0	4.204872e-01	5.682604e-02	0.0	4.345487e-01	5.808173e-02	0.0	4.486493e-01	5.955640e-02	0.0	4.627044e-01	6.181214e-02	0.0	4.767960e-01	6.407374e-02	0.0	4.909378e-01	6.615169e-02	0.0	5.050993e-01	6.814838e-02	0.0	5.192779e-01	6.985560e-02	0.0	5.335441e-01	7.025976e-02	0.0	5.477733e-01	7.066287e-02	0.0	5.618611e-01	6.943670e-02	0.0	5.758431e-01	6.748508e-02	0.0	5.896998e-01	6.530598e-02	0.0	6.032387e-01	6.197049e-02	0.0	6.166734e-01	5.866065e-02	0.0	6.299492e-01	5.521509e-02	0.0	6.430670e-01	5.168806e-02	0.0	6.560450e-01	4.819859e-02	0.0	6.690422e-01	4.546008e-02	0.0	6.818797e-01	4.277149e-02	0.0	6.946055e-01	4.047870e-02	0.0	7.072437e-01	3.877832e-02	0.0	7.196880e-01	3.710403e-02	0.0	7.319841e-01	3.594517e-02	0.0	7.440798e-01	3.489871e-02	0.0	7.559636e-01	3.394563e-02	0.0	7.676342e-01	3.314830e-02	0.0	7.790751e-01	3.236665e-02	0.0	7.902764e-01	3.152916e-02	0.0	8.012390e-01	3.070630e-02	0.0	8.119507e-01	2.979437e-02	0.0	8.224136e-01	2.885279e-02	0.0	8.326204e-01	2.783931e-02	0.0	8.425676e-01	2.673670e-02	0.0	8.522606e-01	2.561792e-02	0.0	8.616820e-01	2.434605e-02	0.0	8.708548e-01	2.310774e-02	0.0	8.797592e-01	2.176134e-02	0.0	8.884127e-01	2.042179e-02	0.0	8.968151e-01	1.908120e-02	0.0	9.049630e-01	1.770723e-02	0.0	9.128708e-01	1.637376e-02	0.0	9.205323e-01	1.502971e-02	0.0	9.279577e-01	1.371679e-02	0.0	9.351498e-01	1.243262e-02	0.0	9.421108e-01	1.116829e-02	0.0	9.488479e-01	9.944058e-03	0.0	9.553602e-01	8.732006e-03	0.0	9.616572e-01	7.560048e-03	0.0	9.677389e-01	6.405823e-03	0.0	9.736134e-01	5.287075e-03	0.0	9.792817e-01	4.185427e-03	0.0	9.847512e-01	3.113509e-03	0.0	9.900252e-01	2.063474e-03	0.0	9.951074e-01	1.029597e-03	0.0	1.000000e+00	0.000000e+00	0.0	9.950041e-01	2.004515e-04	0.0	9.898202e-01	3.922860e-04	0.0	9.844423e-01	5.377627e-04	0.0	9.788662e-01	6.413776e-04	0.0	9.730873e-01	7.220227e-04	0.0	9.671008e-01	7.471206e-04	0.0	9.609026e-01	7.496740e-04	0.0	9.544882e-01	6.869615e-04	0.0	9.478531e-01	6.081866e-04	0.0	9.409946e-01	4.319153e-04	0.0	9.339069e-01	2.497538e-04	0.0	9.265899e-01	-4.691533e-05	0.0	9.190372e-01	-3.784640e-04	0.0	9.112507e-01	-8.210244e-04	0.0	9.032320e-01	-1.449999e-03	0.0	8.949681e-01	-2.098207e-03	0.0	8.865058e-01	-3.216652e-03	0.0	8.778023e-01	-4.432394e-03	0.0	8.689064e-01	-5.992690e-03	0.0	8.598478e-01	-8.065531e-03	0.0	8.505420e-01	-1.019494e-02	0.0	8.412070e-01	-1.317682e-02	0.0	8.316336e-01	-1.624598e-02	0.0	8.218506e-01	-1.948550e-02	0.0	8.118475e-01	-2.285840e-02	0.0	8.015540e-01	-2.613087e-02	0.0	7.908978e-01	-2.905713e-02	0.0	7.800081e-01	-3.204752e-02	0.0	7.686369e-01	-3.394434e-02	0.0	7.570250e-01	-3.583020e-02	0.0	7.451286e-01	-3.727963e-02	0.0	7.329652e-01	-3.838026e-02	0.0	7.205877e-01	-3.949499e-02	0.0	7.079994e-01	-4.057271e-02	0.0	6.952133e-01	-4.166736e-02	0.0	6.822793e-01	-4.314537e-02	0.0	6.691978e-01	-4.492474e-02	0.0	6.559520e-01	-4.674763e-02	0.0	6.426678e-01	-4.931286e-02	0.0	6.292395e-01	-5.190592e-02	0.0	6.156700e-01	-5.447726e-02	0.0	6.019710e-01	-5.701956e-02	0.0	5.881650e-01	-5.958171e-02	0.0	5.741214e-01	-6.118598e-02	0.0	5.599887e-01	-6.274282e-02	0.0	5.457514e-01	-6.352035e-02	0.0	5.314151e-01	-6.333645e-02	0.0	5.170413e-01	-6.315208e-02	0.0	5.026897e-01	-6.201203e-02	0.0	4.883318e-01	-6.084730e-02	0.0	4.739712e-01	-5.982551e-02	0.0	4.596229e-01	-5.894946e-02	0.0	4.453119e-01	-5.810869e-02	0.0	4.310413e-01	-5.875403e-02	0.0	4.168377e-01	-5.939635e-02	0.0	4.028040e-01	-6.090394e-02	0.0	3.889382e-01	-6.312015e-02	0.0	3.751832e-01	-6.533764e-02	0.0	3.616350e-01	-6.801897e-02	0.0	3.482189e-01	-7.067416e-02	0.0	3.348942e-01	-7.300043e-02	0.0	3.216737e-01	-7.500264e-02	0.0	3.086207e-01	-7.697950e-02	0.0	2.956105e-01	-7.748906e-02	0.0	2.827861e-01	-7.795544e-02	0.0	2.701738e-01	-7.774745e-02	0.0	2.577836e-01	-7.678460e-02	0.0	2.456072e-01	-7.583836e-02	0.0	2.337882e-01	-7.382940e-02	0.0	2.222021e-01	-7.179067e-02	0.0	2.109160e-01	-6.946738e-02	0.0	1.999789e-01	-6.665516e-02	0.0	1.892764e-01	-6.390326e-02	0.0	1.789218e-01	-6.082476e-02	0.0	1.688399e-01	-5.769540e-02	0.0	1.590016e-01	-5.462736e-02	0.0	1.494392e-01	-5.152398e-02	0.0	1.401177e-01	-4.849879e-02	0.0	1.309996e-01	-4.567537e-02	0.0	1.220769e-01	-4.307903e-02	0.0	1.133971e-01	-4.055337e-02	0.0	1.048496e-01	-3.852143e-02	0.0	9.652380e-02	-3.663146e-02	0.0	8.842133e-02	-3.488700e-02	0.0	8.051834e-02	-3.339103e-02	0.0	7.285431e-02	-3.194030e-02	0.0	6.543553e-02	-3.048614e-02	0.0	5.825000e-02	-2.907292e-02	0.0	5.136384e-02	-2.739937e-02	0.0	4.473419e-02	-2.563358e-02	0.0	3.844397e-02	-2.354289e-02	0.0	3.243147e-02	-2.130707e-02	0.0	2.681226e-02	-1.870342e-02	0.0	2.145219e-02	-1.604035e-02	0.0	1.651021e-02	-1.304384e-02	0.0	1.183197e-02	-1.001413e-02	0.0	7.447571e-03	-6.896492e-03	0.0	3.439567e-03	-3.606193e-03	0.0	
CELLS 198	594
2	15	16	2	16	17	2	17	18	2	18	19	2	19	20	2	20	21	2	21	22	2	22	23	2	23	24	2	24	25	2	25	26	2	26	27	2	27	28	2	28	29	2	29	30	2	30	31	2	31	32	2	32	33	2	33	34	2	34	35	2	35	36	2	36	37	2	37	38	2	38	39	2	39	40	2	40	41	2	41	42	2	42	43	2	43	44	2	44	45	2	45	46	2	46	47	2	47	48	2	48	49	2	49	50	2	50	51	2	51	52	2	52	53	2	53	54	2	54	55	2	55	56	2	56	57	2	57	58	2	58	59	2	59	60	2	60	61	2	61	62	2	62	63	2	63	64	2	64	65	2	65	66	2	66	67	2	67	68	2	68	69	2	69	70	2	70	71	2	71	72	2	72	73	2	73	74	2	74	75	2	75	76	2	76	77	2	77	78	2	78	79	2	79	80	2	80	81	2	81	82	2	82	83	2	83	84	2	84	85	2	85	86	2	86	87	2	87	88	2	88	89	2	89	90	2	90	91	2	91	92	2	92	93	2	93	94	2	94	95	2	95	96	2	96	97	2	97	98	2	98	99	2	99	100	2	100	101	2	101	102	2	102	103	2	103	104	2	104	105	2	105	106	2	106	107	2	107	108	2	108	109	2	109	110	2	110	111	2	111	112	2	112	113	2	113	114	2	114	115	2	115	116	2	116	117	2	117	118	2	118	119	2	119	120	2	120	121	2	121	122	2	122	123	2	123	124	2	124	125	2	125	126	2	126	127	2	127	128	2	128	129	2	129	130	2	130	131	2	131	132	2	132	133	2	133	134	2	134	135	2	135	136	2	136	137	2	137	138	2	138	139	2	139	140	2	140	141	2	141	142	2	142	143	2	143	144	2	144	145	2	0	1	2	1	2	2	2	3	2	3	4	2	4	5	2	5	6	2	6	7	2	7	8	2	8	9	2	9	10	2	10	11	2	11	12	2	12	13	2	13	14	2	14	15	2	145	146	2	146	147	2	147	148	2	148	149	2	149	150	2	150	151	2	151	152	2	152	153	2	153	154	2	154	155	2	155	156	2	156	157	2	157	158	2	158	159	2	159	160	2	160	161	2	161	162	2	162	163	2	163	164	2	164	165	2	165	166	2	166	167	2	167	168	2	168	169	2	169	170	2	170	171	2	171	172	2	172	173	2	173	174	2	174	175	2	175	176	2	176	177	2	177	178	2	178	179	2	179	180	2	180	181	2	181	182	2	182	183	2	183	184	2	184	185	2	185	186	2	186	187	2	187	188	2	188	189	2	189	190	2	190	191	2	191	192	2	192	193	2	193	194	2	194	195	2	195	196	2	196	197	2	197	0	
CELL_TYPES 198
3	3	3	3	3	3	3	3	3	3	3	3	3	3	3	3	3	3	3	3	3	3	3	3	3	3	3	3	3	3	3	3	3	3	3	3	3	3	3	3	3	3	3	3	3	3	3	3	3	3	3	3	3	3	3	3	3	3	3	3	3	3	3	3	3	3	3	3	3	3	3	3	3	3	3	3	3	3	3	3	3	3	3	3	3	3	3	3	3	3	3	3	3	3	3	3	3	3	3	3	3	3	3	3	3	3	3	3	3	3	3	3	3	3	3	3	3	3	3	3	3	3	3	3	3	3	3	3	3	3	3	3	3	3	3	3	3	3	3	3	3	3	3	3	3	3	3	3	3	3	3	3	3	3	3	3	3	3	3	3	3	3	3	3	3	3	3	3	3	3	3	3	3	3	3	3	3	3	3	3	3	3	3	3	3	3	3	3	3	3	3	3	3	3	3	3	3	3	
POINT_DATA 198

SCALARS Density double 1
LOOKUP_TABLE default
1.525900e+00	1.146663e+00	1.162929e+00	1.118484e+00	1.101229e+00	1.086014e+00	1.082934e+00	1.062964e+00	1.034520e+00	9.892532e-01	9.334771e-01	8.471299e-01	7.731995e-01	6.782454e-01	6.030143e-01	5.712417e-01	6.296502e-01	8.583197e-01	1.157999e+00	1.205143e+00	1.202152e+00	1.203657e+00	1.196389e+00	1.193274e+00	1.185545e+00	1.172753e+00	1.164518e+00	1.146339e+00	1.125835e+00	1.104773e+00	1.073756e+00	1.036639e+00	1.005628e+00	9.557969e-01	9.083791e-01	8.856638e-01	8.610965e-01	9.079609e-01	1.016158e+00	1.081590e+00	1.126939e+00	1.162429e+00	1.179214e+00	1.199027e+00	1.209407e+00	1.192677e+00	1.185368e+00	1.159077e+00	1.107015e+00	1.061909e+00	1.009151e+00	9.120794e-01	8.421943e-01	7.662924e-01	6.701452e-01	6.253632e-01	5.684745e-01	5.295116e-01	5.895975e-01	8.638788e-01	1.088481e+00	1.132409e+00	1.149414e+00	1.156755e+00	1.170527e+00	1.171799e+00	1.172423e+00	1.174607e+00	1.169966e+00	1.169546e+00	1.167454e+00	1.162891e+00	1.162044e+00	1.160978e+00	1.159562e+00	1.160849e+00	1.160852e+00	1.163679e+00	1.165105e+00	1.168942e+00	1.173413e+00	1.176879e+00	1.182855e+00	1.186571e+00	1.191319e+00	1.195898e+00	1.199715e+00	1.204339e+00	1.207642e+00	1.211506e+00	1.214733e+00	1.218193e+00	1.221339e+00	1.224422e+00	1.227550e+00	1.230123e+00	1.233324e+00	1.238288e+00	1.227163e+00	1.244688e+00	1.392404e+00	1.345806e+00	1.356669e+00	1.359850e+00	1.363108e+00	1.366615e+00	1.369351e+00	1.373045e+00	1.375546e+00	1.378807e+00	1.382178e+00	1.384847e+00	1.391497e+00	1.391565e+00	1.399621e+00	1.402621e+00	1.400035e+00	1.405484e+00	1.396386e+00	1.397813e+00	1.389948e+00	1.364768e+00	1.346296e+00	1.316760e+00	1.278351e+00	1.251016e+00	1.196021e+00	1.169803e+00	1.173646e+00	1.169399e+00	1.191235e+00	1.211717e+00	1.226710e+00	1.248867e+00	1.263852e+00	1.260138e+00	1.268738e+00	1.260753e+00	1.230418e+00	1.206374e+00	1.176083e+00	1.116030e+00	1.063376e+00	1.015852e+00	9.907612e-01	1.029860e+00	1.067734e+00	1.119185e+00	1.188104e+00	1.228674e+00	1.256918e+00	1.304103e+00	1.317538e+00	1.314586e+00	1.323767e+00	1.302155e+00	1.284834e+00	1.268359e+00	1.229569e+00	1.114741e+00	8.360549e-01	6.938369e-01	7.057707e-01	7.793341e-01	8.097836e-01	8.757840e-01	9.096291e-01	9.716640e-01	1.048407e+00	1.073816e+00	1.126967e+00	1.170270e+00	1.203623e+00	1.250990e+00	1.283120e+00	1.311402e+00	1.342832e+00	1.368978e+00	1.382671e+00	1.403425e+00	1.417216e+00	1.414536e+00	1.420057e+00	1.417798e+00	1.409560e+00	1.407398e+00	1.396501e+00	1.391671e+00	1.393300e+00	1.400475e+00	1.417355e+00	1.443846e+00	1.476026e+00	1.510029e+00	1.550357e+00	1.584005e+00	1.603252e+00	1.674704e+00	
VECTORS Momentum double
2.036747e+01	2.144819e+02	0.0	1.782494e+02	1.717308e+02	0.0	2.081015e+02	1.630836e+02	0.0	2.381043e+02	1.453738e+02	0.0	2.540987e+02	1.332488e+02	0.0	2.656001e+02	1.215003e+02	0.0	2.736051e+02	1.164493e+02	0.0	2.816179e+02	1.109311e+02	0.0	2.882803e+02	1.059166e+02	0.0	2.941302e+02	9.738377e+01	0.0	3.000827e+02	8.670615e+01	0.0	2.971798e+02	6.656744e+01	0.0	2.940238e+02	4.898310e+01	0.0	2.798976e+02	2.368889e+01	0.0	2.637961e+02	3.817349e+00	0.0	2.502439e+02	-3.809585e+00	0.0	2.599378e+02	-5.920997e+00	0.0	2.558653e+02	-3.873956e+00	0.0	2.489396e+02	7.739175e+00	0.0	2.451578e+02	1.270717e+01	0.0	2.419201e+02	1.842683e+01	0.0	2.404440e+02	2.497023e+01	0.0	2.400103e+02	2.826141e+01	0.0	2.409238e+02	3.279706e+01	0.0	2.442263e+02	3.711950e+01	0.0	2.469456e+02	3.953528e+01	0.0	2.506326e+02	4.382459e+01	0.0	2.547049e+02	4.592184e+01	0.0	2.591083e+02	4.733219e+01	0.0	2.650627e+02	4.946416e+01	0.0	2.710705e+02	4.920545e+01	0.0	2.760091e+02	4.545968e+01	0.0	2.822190e+02	4.403156e+01	0.0	2.859633e+02	3.724180e+01	0.0	2.873283e+02	2.748465e+01	0.0	2.907175e+02	2.272911e+01	0.0	2.868976e+02	1.082863e+01	0.0	2.836206e+02	9.179774e-01	0.0	2.809076e+02	-1.970061e+00	0.0	2.731809e+02	-7.079287e+00	0.0	2.660059e+02	-7.509107e+00	0.0	2.601515e+02	-3.168356e+00	0.0	2.527632e+02	-4.211496e-01	0.0	2.476989e+02	7.643728e+00	0.0	2.490132e+02	1.944523e+01	0.0	2.506843e+02	2.442843e+01	0.0	2.546877e+02	3.357990e+01	0.0	2.639291e+02	4.258074e+01	0.0	2.726909e+02	4.211184e+01	0.0	2.802519e+02	4.019658e+01	0.0	2.900439e+02	3.778948e+01	0.0	2.906170e+02	2.158559e+01	0.0	2.893309e+02	8.538218e+00	0.0	2.858766e+02	-7.238979e+00	0.0	2.669682e+02	-2.897259e+01	0.0	2.574854e+02	-3.783990e+01	0.0	2.453196e+02	-4.830218e+01	0.0	2.268574e+02	-5.582201e+01	0.0	2.290330e+02	-5.549592e+01	0.0	2.190485e+02	-5.691577e+01	0.0	1.964351e+02	-5.405927e+01	0.0	1.810077e+02	-4.325965e+01	0.0	1.735853e+02	-3.639163e+01	0.0	1.668351e+02	-3.272096e+01	0.0	1.632394e+02	-2.563750e+01	0.0	1.626936e+02	-2.188350e+01	0.0	1.618451e+02	-1.860863e+01	0.0	1.635918e+02	-1.473271e+01	0.0	1.655024e+02	-1.380771e+01	0.0	1.671389e+02	-1.241689e+01	0.0	1.701379e+02	-1.157024e+01	0.0	1.717156e+02	-1.234612e+01	0.0	1.728535e+02	-1.297099e+01	0.0	1.737032e+02	-1.384280e+01	0.0	1.734319e+02	-1.522877e+01	0.0	1.738786e+02	-1.646006e+01	0.0	1.728696e+02	-1.813939e+01	0.0	1.711921e+02	-1.931752e+01	0.0	1.688369e+02	-2.108828e+01	0.0	1.658318e+02	-2.238634e+01	0.0	1.631761e+02	-2.331814e+01	0.0	1.594740e+02	-2.443213e+01	0.0	1.562398e+02	-2.452528e+01	0.0	1.528059e+02	-2.505426e+01	0.0	1.490449e+02	-2.514351e+01	0.0	1.455914e+02	-2.504021e+01	0.0	1.419464e+02	-2.501798e+01	0.0	1.383396e+02	-2.454675e+01	0.0	1.346144e+02	-2.422800e+01	0.0	1.311176e+02	-2.380797e+01	0.0	1.278311e+02	-2.351715e+01	0.0	1.245296e+02	-2.317124e+01	0.0	1.209136e+02	-2.268354e+01	0.0	1.170348e+02	-2.223388e+01	0.0	1.132344e+02	-2.176126e+01	0.0	1.092690e+02	-2.139506e+01	0.0	1.053763e+02	-2.080159e+01	0.0	1.006097e+02	-2.038621e+01	0.0	9.682706e+01	-2.192095e+01	0.0	1.396192e+02	3.353126e+00	0.0	2.619530e+02	-1.433951e+01	0.0	2.355453e+02	-7.156613e+00	0.0	2.368435e+02	-5.400272e+00	0.0	2.344171e+02	-3.814310e+00	0.0	2.325423e+02	-2.077306e+00	0.0	2.309890e+02	-5.379969e-01	0.0	2.293795e+02	1.091785e+00	0.0	2.277550e+02	2.440932e+00	0.0	2.261297e+02	4.272377e+00	0.0	2.245696e+02	5.755285e+00	0.0	2.226218e+02	7.395083e+00	0.0	2.206453e+02	9.323395e+00	0.0	2.182730e+02	1.089226e+01	0.0	2.157607e+02	1.464680e+01	0.0	2.136577e+02	1.661468e+01	0.0	2.104872e+02	2.217392e+01	0.0	2.094963e+02	2.852461e+01	0.0	2.086610e+02	3.297484e+01	0.0	2.080626e+02	4.233498e+01	0.0	2.098244e+02	4.791205e+01	0.0	2.105080e+02	5.732122e+01	0.0	2.174218e+02	6.926359e+01	0.0	2.292256e+02	7.444605e+01	0.0	2.390898e+02	7.966969e+01	0.0	2.513943e+02	8.187239e+01	0.0	2.646023e+02	7.788190e+01	0.0	2.735704e+02	7.544995e+01	0.0	2.870973e+02	6.278573e+01	0.0	2.920090e+02	4.794057e+01	0.0	2.902194e+02	4.108064e+01	0.0	2.911730e+02	3.045358e+01	0.0	2.865356e+02	2.572824e+01	0.0	2.819610e+02	2.485053e+01	0.0	2.776808e+02	2.377962e+01	0.0	2.723413e+02	2.712633e+01	0.0	2.696169e+02	3.375663e+01	0.0	2.705300e+02	3.677162e+01	0.0	2.695647e+02	4.446085e+01	0.0	2.738756e+02	5.289584e+01	0.0	2.828979e+02	5.390112e+01	0.0	2.883439e+02	5.407450e+01	0.0	2.939814e+02	5.476661e+01	0.0	3.038712e+02	4.527639e+01	0.0	3.076792e+02	3.519541e+01	0.0	3.079774e+02	2.546010e+01	0.0	3.121459e+02	5.977770e+00	0.0	3.063121e+02	-3.721920e+00	0.0	3.009362e+02	-1.393900e+01	0.0	2.918515e+02	-2.382962e+01	0.0	2.784560e+02	-2.104634e+01	0.0	2.690094e+02	-1.769130e+01	0.0	2.590692e+02	-1.588827e+01	0.0	2.475480e+02	-1.651619e+00	0.0	2.441338e+02	1.116296e+01	0.0	2.436436e+02	1.862760e+01	0.0	2.422503e+02	3.243225e+01	0.0	2.492283e+02	3.980821e+01	0.0	2.552716e+02	4.546361e+01	0.0	2.609045e+02	5.138559e+01	0.0	2.712238e+02	4.818625e+01	0.0	2.772166e+02	4.570788e+01	0.0	2.810940e+02	3.952065e+01	0.0	2.927001e+02	2.785268e+01	0.0	3.094766e+02	1.108286e+01	0.0	3.126400e+02	2.643888e+00	0.0	3.238950e+02	-1.574924e+01	0.0	3.237711e+02	-2.491252e+01	0.0	3.286684e+02	-4.115810e+01	0.0	3.303557e+02	-5.752969e+01	0.0	3.258238e+02	-6.185622e+01	0.0	3.243106e+02	-7.524396e+01	0.0	3.181672e+02	-8.186475e+01	0.0	3.116843e+02	-8.610044e+01	0.0	3.048219e+02	-9.258534e+01	0.0	2.964490e+02	-9.221335e+01	0.0	2.897085e+02	-9.224418e+01	0.0	2.824682e+02	-9.178792e+01	0.0	2.754109e+02	-8.731350e+01	0.0	2.704081e+02	-8.110588e+01	0.0	2.658725e+02	-7.739499e+01	0.0	2.620470e+02	-6.938087e+01	0.0	2.620204e+02	-6.084294e+01	0.0	2.627113e+02	-5.819463e+01	0.0	2.630015e+02	-5.319303e+01	0.0	2.653573e+02	-5.012047e+01	0.0	2.679574e+02	-5.165676e+01	0.0	2.694155e+02	-5.275168e+01	0.0	2.704360e+02	-5.932022e+01	0.0	2.677900e+02	-6.825412e+01	0.0	2.613225e+02	-7.797735e+01	0.0	2.512827e+02	-8.832291e+01	0.0	2.350107e+02	-9.764515e+01	0.0	2.131650e+02	-1.021470e+02	0.0	1.861856e+02	-1.022177e+02	0.0	1.543280e+02	-9.653047e+01	0.0	1.170527e+02	-7.890080e+01	0.0	7.227677e+01	-5.336596e+01	0.0	1.844552e-01	6.176306e+00	0.0	
SCALARS Energy double 1
LOOKUP_TABLE default
3.352535e+05	2.562989e+05	2.607808e+05	2.524957e+05	2.494926e+05	2.467351e+05	2.465099e+05	2.428276e+05	2.373721e+05	2.283929e+05	2.173661e+05	1.993498e+05	1.840925e+05	1.637041e+05	1.472594e+05	1.395442e+05	1.518844e+05	1.970346e+05	2.587770e+05	2.684920e+05	2.676948e+05	2.679617e+05	2.664236e+05	2.658520e+05	2.644515e+05	2.619430e+05	2.604799e+05	2.569434e+05	2.529526e+05	2.489832e+05	2.429537e+05	2.355894e+05	2.296713e+05	2.197046e+05	2.100941e+05	2.057816e+05	2.004129e+05	2.095576e+05	2.314588e+05	2.444180e+05	2.533659e+05	2.604038e+05	2.634651e+05	2.673389e+05	2.696421e+05	2.662436e+05	2.650131e+05	2.601674e+05	2.498929e+05	2.410698e+05	2.309563e+05	2.110957e+05	1.968510e+05	1.814243e+05	1.607004e+05	1.510890e+05	1.389897e+05	1.295555e+05	1.413167e+05	1.958118e+05	2.414967e+05	2.499445e+05	2.531725e+05	2.544244e+05	2.571737e+05	2.574026e+05	2.574864e+05	2.580074e+05	2.570876e+05	2.570597e+05	2.567334e+05	2.558263e+05	2.556956e+05	2.555069e+05	2.551978e+05	2.554966e+05	2.554613e+05	2.560000e+05	2.562153e+05	2.569197e+05	2.577750e+05	2.583784e+05	2.595357e+05	2.602074e+05	2.610900e+05	2.619504e+05	2.626449e+05	2.635154e+05	2.641032e+05	2.648222e+05	2.654146e+05	2.660599e+05	2.666308e+05	2.671849e+05	2.677548e+05	2.682051e+05	2.687960e+05	2.697517e+05	2.672709e+05	2.721627e+05	3.090192e+05	2.977474e+05	3.001180e+05	3.006726e+05	3.012723e+05	3.019428e+05	3.024477e+05	3.031571e+05	3.036145e+05	3.042377e+05	3.048683e+05	3.053501e+05	3.066644e+05	3.065770e+05	3.082105e+05	3.087359e+05	3.081740e+05	3.093304e+05	3.074335e+05	3.078649e+05	3.063173e+05	3.014149e+05	2.981224e+05	2.924439e+05	2.850359e+05	2.799842e+05	2.689893e+05	2.642316e+05	2.651765e+05	2.640923e+05	2.686107e+05	2.725315e+05	2.753556e+05	2.797151e+05	2.825468e+05	2.816446e+05	2.835323e+05	2.818656e+05	2.758630e+05	2.714364e+05	2.655007e+05	2.534699e+05	2.432848e+05	2.337855e+05	2.286271e+05	2.368568e+05	2.441051e+05	2.542919e+05	2.679631e+05	2.755179e+05	2.808366e+05	2.901887e+05	2.923671e+05	2.915725e+05	2.935168e+05	2.889400e+05	2.857126e+05	2.826296e+05	2.748609e+05	2.514685e+05	1.947957e+05	1.670561e+05	1.705524e+05	1.865858e+05	1.928549e+05	2.070761e+05	2.138235e+05	2.268467e+05	2.426802e+05	2.475010e+05	2.584451e+05	2.669611e+05	2.734288e+05	2.828801e+05	2.889896e+05	2.944615e+05	3.005922e+05	3.055885e+05	3.080816e+05	3.121529e+05	3.147457e+05	3.140648e+05	3.152383e+05	3.147193e+05	3.130693e+05	3.127684e+05	3.105562e+05	3.096674e+05	3.099824e+05	3.112942e+05	3.145192e+05	3.195215e+05	3.254997e+05	3.317339e+05	3.392647e+05	3.453058e+05	3.484016e+05	3.631809e+05	
SCALARS Pressure double 1
LOOKUP_TABLE default
1.280175e+05	9.183389e+04	9.229051e+04	8.708172e+04	8.484623e+04	8.298415e+04	8.227422e+04	7.989351e+04	7.671353e+04	7.194936e+04	6.604231e+04	5.784314e+04	5.065475e+04	4.221461e+04	3.581877e+04	3.388771e+04	3.928064e+04	6.355563e+04	9.279736e+04	9.739569e+04	9.728467e+04	9.747479e+04	9.680611e+04	9.643195e+04	9.548588e+04	9.411084e+04	9.307364e+04	9.109086e+04	8.885643e+04	8.643131e+04	8.304415e+04	7.913936e+04	7.564258e+04	7.048023e+04	6.569442e+04	6.311047e+04	6.102037e+04	6.610391e+04	7.705190e+04	8.395828e+04	8.877860e+04	9.251542e+04	9.455010e+04	9.669173e+04	9.754010e+04	9.585929e+04	9.487058e+04	9.173443e+04	8.620237e+04	8.133119e+04	7.542698e+04	6.581619e+04	5.884349e+04	5.122596e+04	4.275903e+04	3.877441e+04	3.360201e+04	3.120685e+04	3.768810e+04	6.646619e+04	8.897169e+04	9.386072e+04	9.579556e+04	9.677223e+04	9.820414e+04	9.836161e+04	9.846714e+04	9.860922e+04	9.812008e+04	9.802038e+04	9.771145e+04	9.723313e+04	9.710693e+04	9.697194e+04	9.685119e+04	9.694304e+04	9.697920e+04	9.729893e+04	9.751650e+04	9.797698e+04	9.847904e+04	9.892798e+04	9.958512e+04	1.000415e+05	1.006005e+05	1.011304e+05	1.015947e+05	1.021279e+05	1.025430e+05	1.029972e+05	1.033844e+05	1.037898e+05	1.041740e+05	1.045559e+05	1.049357e+05	1.052664e+05	1.056475e+05	1.061987e+05	1.053020e+05	1.057310e+05	1.137219e+05	1.108462e+05	1.117734e+05	1.121849e+05	1.125741e+05	1.129686e+05	1.132942e+05	1.137062e+05	1.140083e+05	1.143751e+05	1.147681e+05	1.150965e+05	1.158010e+05	1.159093e+05	1.167216e+05	1.171068e+05	1.168837e+05	1.173818e+05	1.165164e+05	1.165182e+05	1.156779e+05	1.129354e+05	1.106199e+05	1.073310e+05	1.030780e+05	9.983077e+04	9.412881e+04	9.092656e+04	9.114829e+04	9.094304e+04	9.305431e+04	9.535188e+04	9.707971e+04	9.944723e+04	1.011652e+05	1.009396e+05	1.016629e+05	1.009054e+05	9.769812e+04	9.482482e+04	9.156419e+04	8.536252e+04	7.956145e+04	7.463247e+04	7.217306e+04	7.581379e+04	8.006444e+04	8.549838e+04	9.275130e+04	9.751369e+04	1.007700e+05	1.057436e+05	1.076442e+05	1.075423e+05	1.083856e+05	1.064009e+05	1.043695e+05	1.024507e+05	9.844250e+04	8.697270e+04	5.903478e+04	4.359631e+04	4.372317e+04	5.002395e+04	5.299952e+04	5.881631e+04	6.234448e+04	6.815539e+04	7.562155e+04	7.851507e+04	8.370770e+04	8.833875e+04	9.199725e+04	9.692674e+04	1.005723e+05	1.036867e+05	1.070985e+05	1.100402e+05	1.117044e+05	1.139339e+05	1.155283e+05	1.153955e+05	1.158980e+05	1.157312e+05	1.148803e+05	1.145248e+05	1.134287e+05	1.128508e+05	1.130305e+05	1.138970e+05	1.157969e+05	1.188375e+05	1.226291e+05	1.267184e+05	1.314314e+05	1.356063e+05	1.383537e+05	1.452678e+05	
SCALARS Temperature double 1
LOOKUP_TABLE default
2.922628e+02	2.789956e+02	2.764611e+02	2.712237e+02	2.684016e+02	2.661891e+02	2.646624e+02	2.618325e+02	2.583232e+02	2.533669e+02	2.464614e+02	2.378659e+02	2.282228e+02	2.168235e+02	2.069252e+02	2.066582e+02	2.173250e+02	2.579499e+02	2.791629e+02	2.815343e+02	2.819132e+02	2.821109e+02	2.818777e+02	2.815213e+02	2.805767e+02	2.795524e+02	2.784267e+02	2.768166e+02	2.749443e+02	2.725390e+02	2.694223e+02	2.659472e+02	2.620349e+02	2.568810e+02	2.519368e+02	2.482349e+02	2.468615e+02	2.536240e+02	2.641511e+02	2.704152e+02	2.744341e+02	2.772542e+02	2.793186e+02	2.809252e+02	2.809577e+02	2.799894e+02	2.788102e+02	2.757086e+02	2.712665e+02	2.668088e+02	2.603760e+02	2.513798e+02	2.433977e+02	2.328766e+02	2.222743e+02	2.159948e+02	2.059134e+02	2.053075e+02	2.226788e+02	2.680268e+02	2.847484e+02	2.887426e+02	2.903348e+02	2.914337e+02	2.922664e+02	2.924171e+02	2.925751e+02	2.924524e+02	2.921561e+02	2.919641e+02	2.915655e+02	2.912767e+02	2.911105e+02	2.909728e+02	2.909653e+02	2.909185e+02	2.910263e+02	2.912763e+02	2.915704e+02	2.919857e+02	2.923636e+02	2.928315e+02	2.932873e+02	2.937088e+02	2.941727e+02	2.945898e+02	2.950008e+02	2.954108e+02	2.958000e+02	2.961626e+02	2.964862e+02	2.968033e+02	2.971346e+02	2.974731e+02	2.977929e+02	2.981066e+02	2.984093e+02	2.987638e+02	2.989268e+02	2.959185e+02	2.845175e+02	2.869252e+02	2.870087e+02	2.873913e+02	2.876992e+02	2.879664e+02	2.882195e+02	2.884893e+02	2.887299e+02	2.889736e+02	2.892593e+02	2.895280e+02	2.899081e+02	2.901649e+02	2.905167e+02	2.908522e+02	2.908342e+02	2.909411e+02	2.906778e+02	2.903856e+02	2.899226e+02	2.882716e+02	2.862351e+02	2.839546e+02	2.808965e+02	2.779916e+02	2.741663e+02	2.707749e+02	2.705464e+02	2.709176e+02	2.721256e+02	2.741312e+02	2.756875e+02	2.774003e+02	2.788464e+02	2.790449e+02	2.791393e+02	2.788141e+02	2.766075e+02	2.738234e+02	2.712176e+02	2.664536e+02	2.606432e+02	2.559337e+02	2.537678e+02	2.564487e+02	2.612203e+02	2.661254e+02	2.719543e+02	2.764772e+02	2.792896e+02	2.824701e+02	2.846150e+02	2.849843e+02	2.852269e+02	2.846511e+02	2.829807e+02	2.813863e+02	2.789074e+02	2.717935e+02	2.459821e+02	2.188884e+02	2.158134e+02	2.236066e+02	2.279992e+02	2.339544e+02	2.387614e+02	2.443512e+02	2.512730e+02	2.547144e+02	2.587526e+02	2.629636e+02	2.662654e+02	2.699108e+02	2.730493e+02	2.754341e+02	2.778382e+02	2.800175e+02	2.814374e+02	2.828096e+02	2.839767e+02	2.841877e+02	2.843156e+02	2.843588e+02	2.839176e+02	2.834737e+02	2.829515e+02	2.824870e+02	2.826060e+02	2.833136e+02	2.846091e+02	2.867232e+02	2.894210e+02	2.923377e+02	2.953233e+02	2.982316e+02	3.006211e+02	3.021771e+02	
SCALARS Mach double 1
LOOKUP_TABLE default
4.119821e-01	6.446447e-01	6.820672e-01	7.554805e-01	7.932995e-01	8.222614e-01	8.419357e-01	8.778145e-01	9.213854e-01	9.815124e-01	1.063227e+00	1.162747e+00	1.272938e+00	1.403008e+00	1.517157e+00	1.520263e+00	1.397266e+00	9.259672e-01	6.421223e-01	6.055850e-01	5.996008e-01	5.964606e-01	6.001619e-01	6.057904e-01	6.205246e-01	6.362236e-01	6.531710e-01	6.769018e-01	7.038230e-01	7.374728e-01	7.797413e-01	8.253945e-01	8.752715e-01	9.390353e-01	9.986067e-01	1.042426e+00	1.058544e+00	9.784279e-01	8.484727e-01	7.664237e-01	7.110428e-01	6.705085e-01	6.397691e-01	6.151168e-01	6.146113e-01	6.295596e-01	6.474318e-01	6.929159e-01	7.548981e-01	8.142056e-01	8.960113e-01	1.005238e+00	1.098916e+00	1.219864e+00	1.340725e+00	1.412504e+00	1.528936e+00	1.536001e+00	1.336112e+00	7.982447e-01	5.533139e-01	4.824486e-01	4.517293e-01	4.294607e-01	4.119046e-01	4.086585e-01	4.052283e-01	4.078933e-01	4.142676e-01	4.183519e-01	4.267234e-01	4.327019e-01	4.361109e-01	4.389181e-01	4.390696e-01	4.400207e-01	4.378292e-01	4.327096e-01	4.266221e-01	4.178946e-01	4.098122e-01	3.996118e-01	3.894489e-01	3.798391e-01	3.690052e-01	3.590160e-01	3.489222e-01	3.385846e-01	3.284945e-01	3.188346e-01	3.099792e-01	3.010677e-01	2.914905e-01	2.813910e-01	2.715241e-01	2.615069e-01	2.514847e-01	2.392450e-01	2.334087e-01	3.253681e-01	5.571914e-01	5.156546e-01	5.141670e-01	5.073059e-01	5.017310e-01	4.968514e-01	4.921917e-01	4.871856e-01	4.826865e-01	4.780926e-01	4.726618e-01	4.675047e-01	4.601283e-01	4.550885e-01	4.481080e-01	4.413641e-01	4.417278e-01	4.395621e-01	4.448798e-01	4.507205e-01	4.598456e-01	4.912289e-01	5.278214e-01	5.665592e-01	6.155640e-01	6.596406e-01	7.148146e-01	7.615668e-01	7.646538e-01	7.596339e-01	7.431604e-01	7.153079e-01	6.932184e-01	6.683656e-01	6.468886e-01	6.439034e-01	6.424798e-01	6.473739e-01	6.799432e-01	7.196262e-01	7.555629e-01	8.188276e-01	8.926865e-01	9.505563e-01	9.767013e-01	9.443001e-01	8.854842e-01	8.230871e-01	7.455101e-01	6.818335e-01	6.402086e-01	5.907231e-01	5.555564e-01	5.493299e-01	5.452113e-01	5.549501e-01	5.824968e-01	6.079119e-01	6.459720e-01	7.477102e-01	1.068829e+00	1.379382e+00	1.414583e+00	1.325535e+00	1.275485e+00	1.207552e+00	1.152457e+00	1.087839e+00	1.006508e+00	9.653077e-01	9.161025e-01	8.635608e-01	8.212717e-01	7.732066e-01	7.304132e-01	6.968454e-01	6.619122e-01	6.291291e-01	6.071095e-01	5.852626e-01	5.661941e-01	5.626954e-01	5.605649e-01	5.598449e-01	5.671712e-01	5.744700e-01	5.829694e-01	5.904517e-01	5.885422e-01	5.770863e-01	5.556557e-01	5.192394e-01	4.695636e-01	4.103714e-01	3.408128e-01	2.574157e-01	1.612228e-01	1.058777e-02	
SCALARS Pressure_Coefficient double 1
LOOKUP_TABLE default