# vtk DataFile Version 3.0
vtk output
ASCII
DATASET UNSTRUCTURED_GRID
POINTS 3968 double
9.342768e-05	4.911937e-04	0.0	2.406483e-04	1.265203e-03	0.0	4.724651e-04	2.483973e-03	0.0	1.229071e-03	4.255604e-03	0.0	2.893116e-03	6.808234e-03	0.0	6.357015e-03	1.010623e-02	0.0	1.261789e-02	1.416491e-02	0.0	2.309965e-02	1.903375e-02	0.0	3.986878e-02	2.473608e-02	0.0	6.571437e-02	3.140254e-02	0.0	1.042182e-01	3.900354e-02	0.0	1.593075e-01	4.710092e-02	0.0	2.340360e-01	5.473191e-02	0.0	3.285972e-01	6.052682e-02	0.0	4.384099e-01	6.277658e-02	0.0	5.539402e-01	5.992088e-02	0.0	6.634486e-01	5.147864e-02	0.0	7.575600e-01	4.057241e-02	0.0	8.319247e-01	2.993379e-02	0.0	8.869035e-01	2.108509e-02	0.0	9.255749e-01	1.435623e-02	0.0	9.518334e-01	9.538083e-03	0.0	9.692372e-01	6.211630e-03	0.0	9.805895e-01	3.977168e-03	0.0	9.879176e-01	2.503269e-03	0.0	9.926163e-01	1.543083e-03	0.0	9.956162e-01	9.223876e-04	0.0	9.975263e-01	5.237081e-04	0.0	9.987401e-01	2.671514e-04	0.0	9.995109e-01	1.039877e-04	0.0	0.000000e+00	0.000000e+00	0.0	1.000000e+00	0.000000e+00	0.0	9.995008e-01	2.902076e-05	0.0	9.987143e-01	7.361583e-05	0.0	9.974758e-01	1.431521e-04	0.0	9.955276e-01	2.462665e-04	0.0	9.924688e-01	3.975418e-04	0.0	9.876792e-01	6.090451e-04	0.0	9.802123e-01	8.775097e-04	0.0	9.686509e-01	1.136016e-03	0.0	9.509423e-01	1.181354e-03	0.0	9.242719e-01	5.061750e-04	0.0	8.851112e-01	-1.699564e-03	0.0	8.296954e-01	-6.695906e-03	0.0	7.551701e-01	-1.561025e-02	0.0	6.614405e-01	-2.883389e-02	0.0	5.527750e-01	-4.414024e-02	0.0	4.379562e-01	-5.617857e-02	0.0	3.282924e-01	-5.896236e-02	0.0	2.337610e-01	-5.429961e-02	0.0	1.590506e-01	-4.714379e-02	0.0	1.039617e-01	-3.935180e-02	0.0	6.546210e-02	-3.187828e-02	0.0	3.965161e-02	-2.514928e-02	0.0	2.295649e-02	-1.926570e-02	0.0	1.254984e-02	-1.425016e-02	0.0	6.333603e-03	-1.012756e-02	0.0	2.889315e-03	-6.810304e-03	0.0	1.230165e-03	-4.254940e-03	0.0	4.731460e-04	-2.483623e-03	0.0	2.410060e-04	-1.265082e-03	0.0	9.357034e-05	-4.911666e-04	0.0	1.000400e+00	0.000000e+00	0.0	1.000811e+00	0.000000e+00	0.0	1.001246e+00	0.000000e+00	0.0	1.001716e+00	0.000000e+00	0.0	1.002235e+00	0.000000e+00	0.0	1.002818e+00	0.000000e+00	0.0	1.003482e+00	0.000000e+00	0.0	1.004245e+00	0.000000e+00	0.0	1.005129e+00	0.000000e+00	0.0	1.006160e+00	0.000000e+00	0.0	1.007367e+00	0.000000e+00	0.0	1.008784e+00	0.000000e+00	0.0	1.010452e+00	0.000000e+00	0.0	1.012419e+00	0.000000e+00	0.0	1.014740e+00	0.000000e+00	0.0	1.017482e+00	0.000000e+00	0.0	1.020724e+00	0.000000e+00	0.0	1.024558e+00	0.000000e+00	0.0	1.029093e+00	0.000000e+00	0.0	1.034459e+00	0.000000e+00	0.0	1.040809e+00	0.000000e+00	0.0	1.048325e+00	0.000000e+00	0.0	1.057221e+00	0.000000e+00	0.0	1.067752e+00	0.000000e+00	0.0	1.080218e+00	0.000000e+00	0.0	1.094975e+00	0.000000e+00	0.0	1.112445e+00	0.000000e+00	0.0	1.133127e+00	0.000000e+00	0.0	1.157611e+00	0.000000e+00	0.0	1.186597e+00	0.000000e+00	0.0	1.220913e+00	0.000000e+00	0.0	1.261539e+00	0.000000e+00	0.0	1.309635e+00	0.000000e+00	0.0	1.366575e+00	0.000000e+00	0.0	1.433986e+00	0.000000e+00	0.0	1.513793e+00	0.000000e+00	0.0	1.608275e+00	0.000000e+00	0.0	1.720131e+00	0.000000e+00	0.0	1.852557e+00	0.000000e+00	0.0	2.009334e+00	0.000000e+00	0.0	2.194941e+00	0.000000e+00	0.0	2.414679e+00	0.000000e+00	0.0	2.674825e+00	0.000000e+00	0.0	2.982808e+00	0.000000e+00	0.0	3.347427e+00	0.000000e+00	0.0	3.779096e+00	0.000000e+00	0.0	4.290143e+00	0.000000e+00	0.0	4.895168e+00	0.000000e+00	0.0	5.611450e+00	0.000000e+00	0.0	6.459449e+00	0.000000e+00	0.0	7.463387e+00	0.000000e+00	0.0	8.651939e+00	0.000000e+00	0.0	1.005905e+01	0.000000e+00	0.0	1.172492e+01	0.000000e+00	0.0	1.369713e+01	0.000000e+00	0.0	1.603200e+01	0.000000e+00	0.0	1.879623e+01	0.000000e+00	0.0	2.206878e+01	0.000000e+00	0.0	2.594312e+01	0.000000e+00	0.0	3.052991e+01	0.000000e+00	0.0	3.596016e+01	0.000000e+00	0.0	4.238898e+01	0.000000e+00	0.0	5.000000e+01	0.000000e+00	0.0	4.974860e+01	4.957248e+00	0.0	4.899697e+01	9.863627e+00	0.0	4.775282e+01	1.466879e+01	0.0	4.602893e+01	1.932344e+01	0.0	4.384298e+01	2.377980e+01	0.0	4.121741e+01	2.799214e+01	0.0	3.817915e+01	3.191725e+01	0.0	3.475938e+01	3.551485e+01	0.0	3.099319e+01	3.874801e+01	0.0	2.691924e+01	4.158357e+01	0.0	2.257931e+01	4.399242e+01	0.0	1.801796e+01	4.594985e+01	0.0	1.328197e+01	4.743578e+01	0.0	8.419961e+00	4.843495e+01	0.0	3.481809e+00	4.893711e+01	0.0	-1.481809e+00	4.893711e+01	0.0	-6.419961e+00	4.843495e+01	0.0	-1.128197e+01	4.743578e+01	0.0	-1.601796e+01	4.594985e+01	0.0	-2.057931e+01	4.399242e+01	0.0	-2.491924e+01	4.158357e+01	0.0	-2.899319e+01	3.874801e+01	0.0	-3.275938e+01	3.551485e+01	0.0	-3.617915e+01	3.191725e+01	0.0	-3.921741e+01	2.799214e+01	0.0	-4.184298e+01	2.377980e+01	0.0	-4.402893e+01	1.932344e+01	0.0	-4.575282e+01	1.466879e+01	0.0	-4.699697e+01	9.863627e+00	0.0	-4.774860e+01	4.957248e+00	0.0	-4.800000e+01	6.000769e-15	0.0	-4.774860e+01	-4.957248e+00	0.0	-4.699697e+01	-9.863627e+00	0.0	-4.575282e+01	-1.466879e+01	0.0	-4.402893e+01	-1.932344e+01	0.0	-4.184298e+01	-2.377980e+01	0.0	-3.921741e+01	-2.799214e+01	0.0	-3.617915e+01	-3.191725e+01	0.0	-3.275938e+01	-3.551485e+01	0.0	-2.899319e+01	-3.874801e+01	0.0	-2.491924e+01	-4.158357e+01	0.0	-2.057931e+01	-4.399242e+01	0.0	-1.601796e+01	-4.594985e+01	0.0	-1.128197e+01	-4.743578e+01	0.0	-6.419961e+00	-4.843495e+01	0.0	-1.481809e+00	-4.893711e+01	0.0	3.481809e+00	-4.893711e+01	0.0	8.419961e+00	-4.843495e+01	0.0	1.328197e+01	-4.743578e+01	0.0	1.801796e+01	-4.594985e+01	0.0	2.257931e+01	-4.399242e+01	0.0	2.691924e+01	-4.158357e+01	0.0	3.099319e+01	-3.874801e+01	0.0	3.475938e+01	-3.551485e+01	0.0	3.817915e+01	-3.191725e+01	0.0	4.121741e+01	-2.799214e+01	0.0	4.384298e+01	-2.377980e+01	0.0	4.602893e+01	-1.932344e+01	0.0	4.775282e+01	-1.466879e+01	0.0	4.899697e+01	-9.863627e+00	0.0	4.974860e+01	-4.957248e+00	0.0	9.999089e-01	1.444542e-04	0.0	1.000318e+00	1.860765e-04	0.0	1.000751e+00	2.300435e-04	0.0	1.001218e+00	2.776111e-04	0.0	1.001735e+00	3.301379e-04	0.0	1.002315e+00	3.891242e-04	0.0	1.002975e+00	4.562549e-04	0.0	1.003734e+00	5.334474e-04	0.0	1.004614e+00	6.229066e-04	0.0	1.005640e+00	7.271877e-04	0.0	1.006840e+00	8.492693e-04	0.0	1.008250e+00	9.926384e-04	0.0	1.009910e+00	1.161390e-03	0.0	1.011866e+00	1.360344e-03	0.0	1.014176e+00	1.595184e-03	0.0	1.016904e+00	1.872617e-03	0.0	1.020129e+00	2.200567e-03	0.0	1.023943e+00	2.588402e-03	0.0	1.028455e+00	3.047199e-03	0.0	1.033793e+00	3.590064e-03	0.0	1.040111e+00	4.232501e-03	0.0	1.047589e+00	4.992862e-03	0.0	1.056439e+00	5.892863e-03	0.0	1.066916e+00	6.958213e-03	0.0	1.079318e+00	8.219340e-03	0.0	1.094000e+00	9.712266e-03	0.0	1.111380e+00	1.147963e-02	0.0	1.131956e+00	1.357193e-02	0.0	1.156315e+00	1.604890e-02	0.0	1.185153e+00	1.898131e-02	0.0	1.219293e+00	2.245292e-02	0.0	1.259711e+00	2.656288e-02	0.0	1.307560e+00	3.142858e-02	0.0	1.364209e+00	3.718902e-02	0.0	1.431275e+00	4.400871e-02	0.0	1.510673e+00	5.208245e-02	0.0	1.604671e+00	6.164086e-02	0.0	1.715955e+00	7.295695e-02	0.0	1.847702e+00	8.635395e-02	0.0	2.003677e+00	1.022145e-01	0.0	2.188333e+00	1.209916e-01	0.0	2.406946e+00	1.432217e-01	0.0	2.665759e+00	1.695396e-01	0.0	2.972166e+00	2.006972e-01	0.0	3.334918e+00	2.375843e-01	0.0	3.764376e+00	2.812545e-01	0.0	4.272807e+00	3.329553e-01	0.0	4.874733e+00	3.941633e-01	0.0	5.587347e+00	4.666269e-01	0.0	6.431004e+00	5.524157e-01	0.0	7.429801e+00	6.539803e-01	0.0	8.612267e+00	7.742216e-01	0.0	1.001218e+01	9.165740e-01	0.0	1.166951e+01	1.085104e+00	0.0	1.363162e+01	1.284624e+00	0.0	1.595454e+01	1.520834e+00	0.0	1.870462e+01	1.800481e+00	0.0	2.196041e+01	2.131553e+00	0.0	2.581491e+01	2.523505e+00	0.0	3.037821e+01	2.987533e+00	0.0	3.578065e+01	3.536891e+00	0.0	4.217655e+01	4.187270e+00	0.0	9.991319e-01	3.476686e-04	0.0	9.995350e-01	4.304856e-04	0.0	9.999607e-01	5.179680e-04	0.0	1.000421e+00	6.126144e-04	0.0	1.000930e+00	7.171284e-04	0.0	1.001501e+00	8.344950e-04	0.0	1.002151e+00	9.680668e-04	0.0	1.002898e+00	1.121659e-03	0.0	1.003765e+00	1.299658e-03	0.0	1.004774e+00	1.507149e-03	0.0	1.005956e+00	1.750058e-03	0.0	1.007345e+00	2.035323e-03	0.0	1.008979e+00	2.371093e-03	0.0	1.010905e+00	2.766958e-03	0.0	1.013179e+00	3.234224e-03	0.0	1.015865e+00	3.786240e-03	0.0	1.019041e+00	4.438771e-03	0.0	1.022796e+00	5.210457e-03	0.0	1.027238e+00	6.123338e-03	0.0	1.032495e+00	7.203490e-03	0.0	1.038715e+00	8.481765e-03	0.0	1.046077e+00	9.994674e-03	0.0	1.054792e+00	1.178543e-02	0.0	1.065107e+00	1.390518e-02	0.0	1.077318e+00	1.641448e-02	0.0	1.091774e+00	1.938500e-02	0.0	1.108886e+00	2.290158e-02	0.0	1.129145e+00	2.706466e-02	0.0	1.153129e+00	3.199317e-02	0.0	1.181522e+00	3.782787e-02	0.0	1.215137e+00	4.473541e-02	0.0	1.254932e+00	5.291311e-02	0.0	1.302045e+00	6.259453e-02	0.0	1.357821e+00	7.405621e-02	0.0	1.423854e+00	8.762554e-02	0.0	1.502029e+00	1.036901e-01	0.0	1.594579e+00	1.227087e-01	0.0	1.704149e+00	1.452246e-01	0.0	1.833867e+00	1.718810e-01	0.0	1.987439e+00	2.034391e-01	0.0	2.169251e+00	2.408005e-01	0.0	2.384497e+00	2.850323e-01	0.0	2.639324e+00	3.373978e-01	0.0	2.941011e+00	3.993927e-01	0.0	3.298176e+00	4.727880e-01	0.0	3.721019e+00	5.596798e-01	0.0	4.221619e+00	6.625502e-01	0.0	4.814274e+00	7.843374e-01	0.0	5.515912e+00	9.285201e-01	0.0	6.346575e+00	1.099216e+00	0.0	7.329988e+00	1.301302e+00	0.0	8.494240e+00	1.540549e+00	0.0	9.872587e+00	1.823792e+00	0.0	1.150440e+01	2.159120e+00	0.0	1.343628e+01	2.556111e+00	0.0	1.572342e+01	3.026105e+00	0.0	1.843114e+01	3.582526e+00	0.0	2.163679e+01	4.241267e+00	0.0	2.543191e+01	5.021144e+00	0.0	2.992493e+01	5.944433e+00	0.0	3.524416e+01	7.037505e+00	0.0	4.154155e+01	8.331583e+00	0.0	9.979080e-01	6.434490e-04	0.0	9.983006e-01	7.666102e-04	0.0	9.987153e-01	8.967093e-04	0.0	9.991639e-01	1.037463e-03	0.0	9.996594e-01	1.192890e-03	0.0	1.000216e+00	1.367432e-03	0.0	1.000849e+00	1.566072e-03	0.0	1.001577e+00	1.794486e-03	0.0	1.002421e+00	2.059198e-03	0.0	1.003404e+00	2.367767e-03	0.0	1.004556e+00	2.729009e-03	0.0	1.005908e+00	3.153240e-03	0.0	1.007500e+00	3.652579e-03	0.0	1.009376e+00	4.241288e-03	0.0	1.011591e+00	4.936183e-03	0.0	1.014208e+00	5.757111e-03	0.0	1.017301e+00	6.727521e-03	0.0	1.020959e+00	7.87513
[...]
POINT_DATA 3968

SCALARS Density double 1
LOOKUP_TABLE default
1.413283e+00	1.430830e+00	1.328193e+00	1.207227e+00	1.088580e+00	9.801250e-01	9.170296e-01	8.857786e-01	8.766420e-01	8.773993e-01	8.748803e-01	8.637438e-01	8.467710e-01	8.328089e-01	8.392227e-01	9.023519e-01	1.039451e+00	1.159345e+00	1.215864e+00	1.246631e+00	1.272586e+00	1.296838e+00	1.317721e+00	1.335524e+00	1.350802e+00	1.364224e+00	1.377868e+00	1.389767e+00	1.399676e+00	1.406824e+00	1.451465e+00	1.315577e+00	1.370762e+00	1.407418e+00	1.424676e+00	1.424671e+00	1.423386e+00	1.423356e+00	1.425041e+00	1.427128e+00	1.426609e+00	1.422584e+00	1.413148e+00	1.397197e+00	1.369157e+00	1.318762e+00	1.252810e+00	1.216277e+00	1.229193e+00	1.262229e+00	1.299011e+00	1.340893e+00	1.386226e+00	1.437340e+00	1.496104e+00	1.559015e+00	1.618023e+00	1.657602e+00	1.654810e+00	1.617077e+00	1.567002e+00	1.537719e+00	1.400311e+00	1.407130e+00	1.400984e+00	1.396185e+00	1.393560e+00	1.392928e+00	1.392782e+00	1.392077e+00	1.390247e+00	1.387456e+00	1.384231e+00	1.381058e+00	1.378162e+00	1.375510e+00	1.372940e+00	1.370293e+00	1.367497e+00	1.364553e+00	1.361499e+00	1.358369e+00	1.355178e+00	1.351926e+00	1.348607e+00	1.345219e+00	1.341767e+00	1.338259e+00	1.334714e+00	1.331152e+00	1.327598e+00	1.324078e+00	1.320624e+00	1.317268e+00	1.314043e+00	1.310981e+00	1.308112e+00	1.305462e+00	1.303053e+00	1.300898e+00	1.299005e+00	1.297372e+00	1.295992e+00	1.294850e+00	1.293927e+00	1.293201e+00	1.292646e+00	1.292237e+00	1.291949e+00	1.291757e+00	1.291642e+00	1.291585e+00	1.291571e+00	1.291586e+00	1.291620e+00	1.291666e+00	1.291718e+00	1.291772e+00	1.291824e+00	1.291871e+00	1.291913e+00	1.291943e+00	1.291958e+00	1.291929e+00	1.291847e+00	1.291818e+00	1.292037e+00	1.292010e+00	1.291884e+00	1.291803e+00	1.291702e+00	1.291578e+00	1.291439e+00	1.291284e+00	1.291122e+00	1.290961e+00	1.290814e+00	1.290699e+00	1.290628e+00	1.290614e+00	1.290681e+00	1.290851e+00	1.291075e+00	1.291293e+00	1.291491e+00	1.291661e+00	1.291800e+00	1.291913e+00	1.292002e+00	1.292073e+00	1.292129e+00	1.292175e+00	1.292212e+00	1.292244e+00	1.292272e+00	1.292298e+00	1.292325e+00	1.292352e+00	1.292382e+00	1.292417e+00	1.292459e+00	1.292510e+00	1.292573e+00	1.292650e+00	1.292745e+00	1.292862e+00	1.293002e+00	1.293167e+00	1.293352e+00	1.293548e+00	1.293737e+00	1.293861e+00	1.293887e+00	1.293849e+00	1.293764e+00	1.293642e+00	1.293495e+00	1.293336e+00	1.293176e+00	1.293025e+00	1.292885e+00	1.292762e+00	1.292638e+00	1.292525e+00	1.292457e+00	1.292241e+00	1.417910e+00	1.427510e+00	1.426505e+00	1.421306e+00	1.413475e+00	1.405491e+00	1.398471e+00	1.393122e+00	1.389399e+00	1.386800e+00	1.384634e+00	1.382352e+00	1.379699e+00	1.376701e+00	1.373531e+00	1.370355e+00	1.367251e+00	1.364204e+00	1.361163e+00	1.358070e+00	1.354887e+00	1.351600e+00	1.348214e+00	1.344741e+00	1.341198e+00	1.337600e+00	1.333965e+00	1.330315e+00	1.326673e+00	1.323066e+00	1.319526e+00	1.316085e+00	1.312777e+00	1.309637e+00	1.306698e+00	1.303988e+00	1.301531e+00	1.299345e+00	1.297440e+00	1.295819e+00	1.294476e+00	1.293397e+00	1.292561e+00	1.291940e+00	1.291506e+00	1.291225e+00	1.291067e+00	1.291003e+00	1.291007e+00	1.291058e+00	1.291138e+00	1.291234e+00	1.291336e+00	1.291438e+00	1.291535e+00	1.291624e+00	1.291704e+00	1.291773e+00	1.291830e+00	1.291873e+00	1.291897e+00	1.291884e+00	1.407508e+00	1.412792e+00	1.415093e+00	1.416260e+00	1.415417e+00	1.412683e+00	1.408194e+00	1.402586e+00	1.396639e+00	1.391102e+00	1.386442e+00	1.382752e+00	1.379822e+00	1.377279e+00	1.374777e+00	1.372113e+00	1.369229e+00	1.366154e+00	1.362952e+00	1.359676e+00	1.356342e+00	1.352947e+00	1.349481e+00	1.345936e+00	1.342316e+00	1.338632e+00	1.334904e+00	1.331154e+00	1.327411e+00	1.323702e+00	1.320060e+00	1.316519e+00	1.313115e+00	1.309886e+00	1.306868e+00	1.304094e+00	1.301594e+00	1.299390e+00	1.297498e+00	1.295920e+00	1.294647e+00	1.293658e+00	1.292922e+00	1.292400e+00	1.292054e+00	1.291842e+00	1.291729e+00	1.291684e+00	1.291684e+00	1.291711e+00	1.291752e+00	1.291799e+00	1.291846e+00	1.291891e+00	1.291931e+00	1.291967e+00	1.291996e+00	1.292022e+00	1.292038e+00	1.292051e+00	1.292053e+00	1.292052e+00	1.390887e+00	1.392024e+00	1.393683e+00	1.396042e+00	1.398539e+00	1.400664e+00	1.401845e+00	1.401674e+00	1.399963e+00	1.396827e+00	1.392662e+00	1.388024e+00	1.383459e+00	1.379325e+00	1.375731e+00	1.372576e+00	1.369651e+00	1.366729e+00	1.363666e+00	1.360410e+00	1.356976e+00	1.353407e+00	1.349751e+00	1.346038e+00	1.342283e+00	1.338496e+00	1.334682e+00	1.330854e+00	1.327033e+00	1.323245e+00	1.319525e+00	1.315912e+00	1.312447e+00	1.309174e+00	1.306134e+00	1.303365e+00	1.300902e+00	1.298768e+00	1.296974e+00	1.295515e+00	1.294368e+00	1.293498e+00	1.292862e+00	1.292414e+00	1.292109e+00	1.291911e+00	1.291789e+00	1.291720e+00	1.291687e+00	1.291679e+00	1.291689e+00	1.291711e+00	1.291741e+00	1.291776e+00	1.291812e+00	1.291848e+00	1.291881e+00	1.291914e+00	1.291937e+00	1.291962e+00	1.291973e+00	1.291994e+00	1.378668e+00	1.379743e+00	1.381233e+00	1.383004e+00	1.384953e+00	1.386984e+00	1.389003e+00	1.390835e+00	1.392221e+00	1.392841e+00	1.392406e+00	1.390757e+00	1.387938e+00	1.384205e+00	1.379944e+00	1.375556e+00	1.371333e+00	1.367404e+00	1.363744e+00	1.360246e+00	1.356777e+00	1.353237e+00	1.349579e+00	1.345803e+00	1.341932e+00	1.337998e+00	1.334033e+00	1.330063e+00	1.326118e+00	1.322225e+00	1.318417e+00	1.314733e+00	1.311216e+00	1.307912e+00	1.304866e+00	1.302119e+00	1.299705e+00	1.297643e+00	1.295932e+00	1.294553e+00	1.293472e+00	1.292647e+00	1.292033e+00	1.291591e+00	1.291283e+00	1.291082e+00	1.290966e+00	1.290916e+00	1.290918e+00	1.290958e+00	1.291026e+00	1.291112e+00	1.291207e+00	1.291307e+00	1.291404e+00	1.291496e+00	1.291578e+00	1.291654e+00	1.291714e+00	1.291773e+00	1.291810e+00	1.291857e+00	1.365145e+00	1.366276e+00	1.367658e+00	1.369133e+00	1.370690e+00	1.372303e+00	1.374010e+00	1.375816e+00	1.377702e+00	1.379573e+00	1.381253e+00	1.382481e+00	1.382964e+00	1.382446e+00	1.380792e+00	1.378037e+00	1.374394e+00	1.370186e+00	1.365749e+00	1.361348e+00	1.357120e+00	1.353080e+00	1.349170e+00	1.345302e+00	1.341406e+00	1.337443e+00	1.333413e+00	1.329345e+00	1.325279e+00	1.321263e+00	1.317342e+00	1.313567e+00	1.309986e+00	1.306644e+00	1.303585e+00	1.300848e+00	1.298462e+00	1.296433e+00	1.294751e+00	1.293389e+00	1.292313e+00	1.291487e+00	1.290877e+00	1.290451e+00	1.290180e+00	1.290037e+00	1.289999e+00	1.290041e+00	1.290142e+00	1.290282e+00	1.290445e+00	1.290618e+00	1.290790e+00	1.290955e+00	1.291107e+00	1.291246e+00	1.291366e+00	1.291474e+00	1.291559e+00	1.291641e+00	1.291694e+00	1.291762e+00	1.351487e+00	1.352248e+00	1.353147e+00	1.354135e+00	1.355252e+00	1.356506e+00	1.357931e+00	1.359530e+00	1.361300e+00	1.363208e+00	1.365202e+00	1.367192e+00	1.369045e+00	1.370577e+00	1.371564e+00	1.371773e+00	1.371021e+00	1.369224e+00	1.366431e+00	1.362820e+00	1.358651e+00	1.354194e+00	1.349667e+00	1.345203e+00	1.340852e+00	1.336601e+00	1.332418e+00	1.328275e+00	1.324164e+00	1.320100e+00	1.316122e+00	1.312282e+00	1.308638e+00	1.305242e+00	1.302145e+00	1.299387e+00	1.296989e+00	1.294952e+00	1.293260e+00	1.291890e+00	1.290817e+00	1.290015e+00	1.289453e+00	1.289102e+00	1.288930e+00	1.288903e+00	1.288988e+00	1.289152e+00	1.289369e+00	1.289615e+00	1.289871e+00	1.290125e+00	1.290367e+00	1.290591e+00	1.290795e+00	1.290977e+00	1.291135e+00	1.291274e+00	1.291386e+00	1.291491e+00	1.291562e+00	1.291648e+00	1.335993e+00	1.336502e+00	1.337100e+00	1.337794e+00	1.338622e+00	1.339604e+00	1.340765e+00	1.342108e+00	1.343630e+00	1.345311e+00	1.347125e+00	1.349039e+00	1.351010e+00	1.352984e+00	1.354877e+00	1.356570e+00	1.357901e+00	1.358671e+00	1.358682e+00	1.357779e+00	1.355894e+00	1.353071e+00	1.349462e+00	1.345288e+00	1.340786e+00	1.336160e+00	1.331554e+00	1.327049e+00	1.322681e+00	1.318461e+00	1.314401e+00	1.310521e+00	1.306854e+00	1.303440e+00	1.300324e+00	1.297545e+00	1.295124e+00	1.293062e+00	1.291352e+00	1.289984e+00	1.288941e+00	1.288202e+00	1.287736e+00	1.287506e+00	1.287471e+00	1.287589e+00	1.287818e+00	1.288121e+00	1.288466e+00	1.288828e+00	1.289189e+00	1.289536e+00	1.289860e+00	1.290157e+00	1.290423e+00	1.290660e+00	1.290864e+00	1.291043e+00	1.291188e+00	1.291319e+00	1.291411e+00	1.291516e+00	1.318058e+00	1.318429e+00	1.318882e+00	1.319433e+00	1.320110e+00	1.320927e+00	1.321895e+00	1.323012e+00	1.324273e+00	1.325669e+00	1.327190e+00	1.328825e+00	1.330568e+00	1.332411e+00	1.334338e+00	1.336319e+00	1.338298e+00	1.340183e+00	1.341837e+00	1.343087e+00	1.343742e+00	1.343622e+00	1.342601e+00	1.340639e+00	1.337797e+00	1.334223e+00	1.330124e+00	1.325719e+00	1.321207e+00	1.316742e+00	1.312435e+00	1.308359e+00	1.304557e+00	1.301062e+00	1.297904e+00	1.295103e+00	1.292668e+00	1.290599e+00	1.288900e+00	1.287572e+00	1.286604e+00	1.285975e+00	1.285650e+00	1.285586e+00	1.285730e+00	1.286032e+00	1.286441e+00	1.286914e+00	1.287416e+00	1.287922e+00	1.288410e+00	1.288870e+00	1.289292e+00	1.289674e+00	1.290013e+00	1.290312e+00	1.290569e+00	1.290791e+00	1.290973e+00	1.291134e+00	1.291248e+00	1.291371e+00	1.297083e+00	1.297364e+00	1.297725e+00	1.298188e+00	1.298773e+00	1.299484e+00	1.300322e+00	1.301278e+00	1.302340e+00	1.303499e+00	1.304748e+00	1.306088e+00	1.307529e+00	1.309082e+00	1.310763e+00	1.312577e+00	1.314521e+00	1.316569e+00	1.318673e+00	1.320753e+00	1.322696e+00	1.324357e+00	1.325567e+00	1.326156e+00	1.325980e+00	1.324951e+00	1.323063e+00	1.320395e+00	1.317100e+00	1.313375e+00	1.309434e+00	1.305472e+00	1.301641e+00	1.298061e+00	1.294814e+00	1.291943e+00	1.289466e+00	1.287393e+00	1.285734e+00	1.284491e+00	1.283655e+00	1.283198e+00	1.283079e+00	1.283242e+00	1.283625e+00	1.284164e+00	1.284803e+00	1.285491e+00	1.286189e+00	1.286870e+00	1.287513e+00	1.288107e+00	1.288646e+00	1.289127e+00	1.289551e+00	1.289921e+00	1.290239e+00	1.290512e+00	1.290736e+00	1.290930e+00	1.291071e+00	1.291212e+00	1.272753e+00	1.272967e+00	1.273262e+00	1.273667e+00	1.274192e+00	1.274836e+00	1.275590e+00	1.276436e+00	1.277358e+00	1.278343e+00	1.279384e+00	1.280485e+00	1.281659e+00	1.282925e+00	1.284305e+00	1.285823e+00	1.287492e+00	1.289318e+00	1.291295e+00	1.293402e+00	1.295598e+00	1.297823e+00	1.299990e+00	1.301982e+00	1.303662e+00	1.304881e+00	1.305499e+00	1.305412e+00	1.304577e+00	1.303023e+00	1.300855e+00	1.298232e+00	1.295339e+00	1.292370e+00	1.289500e+00	1.286861e+00	1.284546e+00	1.282626e+00	1.281151e+00	1.280143e+00	1.279591e+00	1.279460e+00	1.279693e+00	1.280220e+00	1.280962e+00	1.281844e+00	1.282800e+00	1.283776e+00	1.284729e+00	1.285633e+00	1.286469e+00	1.287229e+00	1.287908e+00	1.288508e+00	1.289032e+00	1.289486e+00	1.289874e+00	1.290205e+00	1.290478e+00	1.290710e+00	1.290882e+00	1.291044e+00	1.246727e+00	1.246869e+00	1.247121e+00	1.247488e+00	1.247988e+00	1.248596e+00	1.249303e+00	1.250078e+00	1.250906e+00	1.251770e+00	1.252668e+00	1.253602e+00	1.254588e+00	1.255644e+00	1.256795e+00	1.258062e+00	1.259464e+00	1.261014e+00	1.262721e+00	1.264588e+00	1.266611e+00	1.268778e+00	1.271060e+00	1.273411e+00	1.275765e+00	1.278029e+00	1.280093e+00	1.281830e+00	1.283121e+00	1.283868e+00	1.284022e+00	1.283589e+00	1.282633e+00	1.281283e+00	1.279703e+00	1.278060e+00	1.276518e+00	1.275231e+00	1.274322e+00	1.273864e+00	1.273874e+00	1.274322e+00	1.275141e+00	1.276242e+00	1.277530e+00	1.278915e+00	1.280321e+00	1.281692e+00	1.282987e+00	1.284181e+00	1.285263e+00	1.286227e+00	1.287076e+00	1.287818e+00	1.288459e+00	1.289010e+00	1.289479e+00	1.289876e+00	1.290204e+00	1.290480e+00	1.290687e+00	1.290873e+00	1.215941e+00	1.216032e+00	1.216306e+00	1.216696e+00	1.217238e+00	1.217875e+00	1.218602e+00	1.219377e+00	1.220192e+00	1.221027e+00	1.221889e+00	1.222781e+00	1.223724e+00	1.224737e+00	1.225845e+00	1.227066e+00	1.228418e+00	1.229917e+00	1.231574e+00	1.233402e+00	1.235411e+00	1.237609e+00	1.239995e+00	1.242562e+00	1.245285e+00	1.248125e+00	1.251020e+00	1.253888e+00	1.256628e+00	1.259128e+00	1.261286e+00	1.263011e+00	1.264246e+00	1.265000e+00	1.265332e+00	1.265346e+00	1.265194e+00	1.265065e+00	1.265143e+00	1.265569e+00	1.266415e+00	1.267684e+00	1.269315e+00	1.271205e+00	1.273238e+00	1.275304e+00	1.277315e+00	1.279209e+00	1.280948e+00	1.282512e+00	1.283898e+00	1.285111e+00	1.286164e+00	1.287071e+00	1.287847e+00	1.288508e+00	1.289066e+00	1.289536e+00	1.289924e+00	1.290249e+00	1.290495e+00	1.290710e+00	1.159501e+00	1.159723e+00	1.160147e+00	1.160690e+00	1.161379e+00	1.162143e+00	1.162981e+00	1.163848e+00	1.164744e+00	1.165655e+00	1.166597e+00	1.167581e+00	1.168635e+00	1.169781e+00	1.171047e+00	1.172455e+00	1.174027e+00	1.175783e+00	1.177743e+00	1.179930e+00	1.182368e+00	1.185080e+00	1.188089e+00	1.191408e+00	1.195046e+00	1.198997e+00	1.203234e+00	1.207712e+00	1.212357e+00	1.217073e+00	1.221749e+00	1.226255e+00	1.230460e+00	1.234283e+00	1.237675e+00	1.240645e+00	1.243288e+00	1.245775e+00	1.248298e+00	1.251007e+00	1.253980e+00	1.257209e+00	1.260611e+00	1.264067e+00	1.267449e+00	1.270651e+00	1.273599e+00	1.276253e+00	1.278600e+00	1.280647e+00	1.282413e+00	1.283927e+00	1.285215e+00	1.286308e+00	1.287232e+00	1.288010e+00	1.288662e+00	1.289208e+00	1.289660e+00	1.290033e+00	1.290323e+00	1.290571e+00	1.039789e+00	1.040267e+00	1.040956e+00	1.041782e+00	1.042730e+00	1.043740e+00	1.044794e+00	1.045863e+00	1.046948e+00	1.048051e+00	1.049193e+00	1.050400e+00	1.051705e+00	1.053139e+00	1.054732e+00	1.056513e+00	1.058511e+00	1.060757e+00	1.063287e+00	1.066144e+00	1.069375e+00	1.073033e+00	1.077171e+00	1.081844e+00	1.087107e+00	1.093005e+00	1.099573e+00	1.106827e+00	1.114756e+00	1.123317e+00	1.132445e+00	1.142028e+00	1.151926e+00	1.162031e+00	1.172229e+00	1.182427e+00	1.192564e+00	1.202590e+00	1.212419e+00	1.221916e+00	1.230925e+00	1.239297e+00	1.246915e+00	1.253713e+00	1.259676e+00	1.264831e+00	1.269237e+00	1.272972e+00	1.276116e+00	1.278753e+00	1.280958e+00	1.282799e+00	1.284335e+00	1.285616e+00	1.286683e+00	1.287573e+00	1.288314e+00	1.288930e+00	1.289440e+00	1.289859e+00	1.290192e+00	1.290472e+00	9.028027e-01	9.035398e-01	9.044309e-01	9.054243e-01	9.064584e-01	9.075153e-01	9.085624e-01	9.096062e-01	9.106452e-01	9.117072e-01	9.128136e-01	9.140018e-01	9.153006e-01	9.167448e-01	9.183614e-01	9.201825e-01	9.222395e-01	9.245731e-01	9.272303e-01	9.302697e-01	9.337592e-01	9.377755e-01	9.424046e-01	9.477446e-01	9.539099e-01	9.610145e-01	9.691850e-01	9.785485e-01	9.892288e-01	1.001327e+00	1.014958e+00	1.030181e+00	1.047005e+00	1.065413e+00	1.085236e+00	1.106133e+00	1.127581e+00	1.148920e+00	1.169437e+00	1.188478e+00	1.205572e+00	1.220482e+00	1.233177e+00	1.243790e+00	1.252547e+00	1.259712e+00	1.265549e+00	1.270295e+00	1.274155e+00	1.277301e+00	1.279871e+00	1.281975e+00	1.283704e+00	1.285128e+00	1.286303e+00	1.287276e+00	1.288081e+00	1.288749e+00	1.289301e+00	1.289755e+00	1.290124e+00	1.290426e+00	8.400435e-01	8.411379e-01	8.421122e-01	8.431065e-01	8.439584e-01	8.447621e-01	8.454547e-01	8.461118e-01	8.467289e-01	8.473724e-01	8.480619e-01	8.488486e-01	8.497538e-01	8.508119e-01	8.520419e-01	8.534745e-01	8.551390e-01	8.570781e-01	8.593397e-01	8.619870e-01	8.650932e-01	8.687459e-01	8.730409e-01	8.781021e-01	8.840774e-01	8.911305e-01	8.994539e-01	9.092764e-01	9.208660e-01	9.344831e-01	9.504789e-01	9.691066e-01	9.904896e-01	1.014613e+00	1.041078e+00	1.069101e+00	1.097623e+00	1.125496e+00	1.151658e+00	1.175300e+00	1.195974e+00	1.213569e+00	1.228231e+00	1.240261e+00	1.250028e+00	1.257909e+00	1.264253e+00	1.269357e+00	1.273472e+00	1.276799e+00	1.279498e+00	1.281696e+00	1.283494e+00	1.284968e+00	1.286182e+00	1.287185e+00	1.288014e+00	1.288702e+00	1.289273e+00	1.289745e+00	1.290136e+00	1.290450e+00	8.336751e-01	8.346432e-01	8.354709e-01	8.362270e-01	8.368184e-01	8.373148e-01	8.377068e-01	8.380718e-01	8.384398e-01	8.388762e-01	8.394109e-01	8.400846e-01	8.409159e-01	8.419292e-01	8.431417e-01	8.445812e-01	8.462829e-01	8.482923e-01	8.506630e-01	8.534625e-01	8.567757e-01	8.606982e-01	8.653355e-01	8.708310e-01	8.773596e-01	8.851409e-01	8.944107e-01	9.055284e-01	9.188684e-01	9.347693e-01	9.536671e-01	9.756453e-01	1.000553e+00	1.027970e+00	1.056992e+00	1.086397e+00	1.114985e+00	1.141729e+00	1.165892e+00	1.187105e+00	1.205320e+00	1.220701e+00	1.233525e+00	1.244119e+00	1.252811e+00	1.259912e+00	1.265698e+00	1.270408e+00	1.274245e+00	1.277375e+00	1.279933e+00	1.282030e+00	1.283753e+00	1.285174e+00	1.286348e+00	1.287320e+00	1.288129e+00	1.288802e+00	1.289364e+00	1.289835e+00	1.290233e+00	1.290555e+00	8.476474e-01	8.485285e-01	8.493566e-01	8.501016e-01	8.507273e-01	8.512612e-01	8.517343e-01	8.522139e-01	8.527510e-01	8.533995e-01	8.541906e-01	8.551535e-01	8.563078e-01	8.576776e-01	8.592859e-01	8.611687e-01	8.633760e-01	8.659651e-01	8.690047e-01	8.725814e-01	8.768101e-01	8.818143e-01	8.877535e-01	8.948239e-01	9.033303e-01	9.136190e-01	9.260168e-01	9.410460e-01	9.589458e-01	9.798390e-01	1.003701e+00	1.029884e+00	1.057624e+00	1.085669e+00	1.112720e+00	1.137750e+00	1.160212e+00	1.179907e+00	1.196947e+00	1.211616e+00	1.224212e+00	1.235007e+00	1.244225e+00	1.252060e+00	1.258684e+00	1.264256e+00	1.268922e+00	1.272816e+00	1.276057e+00	1.278750e+00	1.280988e+00	1.282847e+00	1.284393e+00	1.285680e+00	1.286753e+00	1.287649e+00	1.288398e+00	1.289028e+00	1.289559e+00	1.290010e+00	1.290399e+00	1.290725e+00	8.647809e-01	8.658456e-01	8.669003e-01	8.678622e-01	8.687066e-01	8.694483e-01	8.701462e-01	8.708719e-01	8.716912e-01	8.726537e-01	8.737927e-01	8.751379e-01	8.767210e-01	8.785794e-01	8.807493e-01	8.832902e-01	8.862768e-01	8.898114e-01	8.939995e-01	8.989885e-01	9.049781e-01	9.122339e-01	9.210790e-01	9.318467e-01	9.450953e-01	9.611372e-01	9.801851e-01	1.002424e+00	1.027338e+00	1.054417e+00	1.082333e+00	1.109728e+00	1.135200e+00	1.157635e+00	1.176692e+00	1.192594e+00	1.205856e+00	1.217045e+00	1.226675e+00	1.235119e+00	1.242611e+00	1.249293e+00	1.255245e+00	1.260522e+00	1.265166e+00	1.269219e+00	1.272728e+00	1.275744e+00	1.278321e+00	1.280512e+00	1.282367e+00	1.283935e+00	1.285258e+00	1.286372e+00	1.287312e+00	1.288104e+00	1.288773e+00	1.289341e+00	1.289824e+00	1.290242e+00	1.290608e+00	1.290928e+00	8.762301e-01	8.776368e-01	8.790143e-01	8.802463e-01	8.813167e-01	8.822650e-01	8.831910e-01	8.841905e-01	8.853473e-01	8.867149e-01	8.883343e-01	8.902489e-01	8.925205e-01	8.952259e-01	8.984467e-01	9.022961e-01	9.069284e-01	9.125815e-01	9.194991e-01	9.280057e-01	9.384861e-01	9.514771e-01	9.672938e-01	9.861961e-01	1.008500e+00	1.033744e+00	1.061505e+00	1.090512e+00	1.119333e+00	1.146298e+00	1.169809e+00	1.189286e+00	1.204590e+00	1.216392e+00	1.225533e+00	1.232817e+00	1.238838e+00	1.244026e+00	1.248681e+00	1.252982e+00	1.257029e+00	1.260862e+00	1.264481e+00	1.267863e+00	1.270983e+00	1.273821e+00	1.276369e+00	1.278627e+00	1.280610e+00	1.282335e+00	1.283825e+00	1.285106e+00	1.286203e+00	1.287140e+00	1.287938e+00	1.288619e+00	1.289199e+00	1.289697e+00	1.290126e+00	1.290502e+00	1.290837e+00	1.291142e+00	8.793308e-01	8.813056e-01	8.831958e-01	8.848564e-01	8.863282e-01	8.877124e-01	8.891684e-01	8.908272e-01	8.927966e-01	8.951501e-01	8.979605e-01	9.013223e-01	9.053884e-01	9.103523e-01	9.164333e-01	9.238836e-01	9.330376e-01	9.443511e-01	9.582387e-01	9.750208e-01	9.950281e-01	1.018526e+00	1.045001e+00	1.074157e+00	1.104743e+00	1.135289e+00	1.163998e+00	1.189004e+00	1.209470e+00	1.224977e+00	1.236181e+00	1.244039e+00	1.249513e+00	1.253427e+00	1.256301e+00	1.258512e+00	1.260346e+00	1.262033e+00	1.263735e+00	1.265540e+00	1.267474e+00	1.269515e+00	1.271617e+00	1.273722e+00	1.275774e+00	1.277726e+00	1.279544e+00	1.281207e+00	1.282706e+00	1.284039e+00	1.285214e+00	1.286241e+00	1.287132e+00	1.287903e+00	1.288568e+00	1.289140e+00	1.289633e+00	1.290060e+00	1.290433e+00	1.290765e+00	1.291063e+00	1.291344e+00	8.797633e-01	8.828921e-01	8.858316e-01	8.884922e-01	8.910362e-01	8.936823e-01	8.966505e-01	9.001343e-01	9.042931e-01	9.092870e-01	9.152905e-01	9.225252e-01	9.313169e-01	9.420293e-01	9.550414e-01	9.706486e-01	9.891743e-01	1.010994e+00	1.036083e+00	1.064107e+00	1.094697e+00	1.126585e+00	1.158366e+00	1.188260e+00	1.214235e+00	1.235356e+00	1.251050e+00	1.261893e+00	1.268903e+00	1.273149e+00	1.275575e+00	1.276715e+00	1.276920e+00	1.276511e+00	1.275789e+00	1.275027e+00	1.274418e+00	1.274083e+00	1.274080e+00	1.274417e+00	1.275066e+00	1.275978e+00	1.277088e+00	1.278327e+00	1.279630e+00	1.280942