# vtk DataFile Version 3.0
vtk output
ASCII
DATASET UNSTRUCTURED_GRID
POINTS 16128 double
1.868554e-04	9.823874e-04	0.0	4.068278e-04	2.138887e-03	0.0	7.718953e-04	3.460482e-03	0.0	1.584146e-03	4.873151e-03	0.0	2.590671e-03	6.495117e-03	0.0	4.154424e-03	8.114048e-03	0.0	6.084260e-03	9.907014e-03	0.0	8.587571e-03	1.173542e-02	0.0	1.167551e-02	1.363755e-02	0.0	1.540414e-02	1.567847e-02	0.0	1.993512e-02	1.772177e-02	0.0	2.531981e-02	1.987215e-02	0.0	3.168088e-02	2.214535e-02	0.0	3.916164e-02	2.453393e-02	0.0	4.791598e-02	2.703655e-02	0.0	5.811436e-02	2.963836e-02	0.0	6.992834e-02	3.236747e-02	0.0	8.354870e-02	3.521182e-02	0.0	9.917183e-02	3.814326e-02	0.0	1.169904e-01	4.112711e-02	0.0	1.371800e-01	4.415044e-02	0.0	1.598965e-01	4.717621e-02	0.0	1.852620e-01	5.012960e-02	0.0	2.133464e-01	5.292735e-02	0.0	2.441447e-01	5.555713e-02	0.0	2.775836e-01	5.786701e-02	0.0	3.134862e-01	5.984640e-02	0.0	3.515855e-01	6.137946e-02	0.0	3.915155e-01	6.236601e-02	0.0	4.328205e-01	6.277773e-02	0.0	4.749760e-01	6.253489e-02	0.0	5.174070e-01	6.147913e-02	0.0	5.595210e-01	5.961177e-02	0.0	6.007431e-01	5.696771e-02	0.0	6.405484e-01	5.366314e-02	0.0	6.784954e-01	4.993164e-02	0.0	7.142343e-01	4.597380e-02	0.0	7.475002e-01	4.186476e-02	0.0	7.781421e-01	3.779664e-02	0.0	8.060825e-01	3.380810e-02	0.0	8.313377e-01	3.002316e-02	0.0	8.539804e-01	2.648487e-02	0.0	8.741311e-01	2.320952e-02	0.0	8.919499e-01	2.022514e-02	0.0	9.076158e-01	1.753045e-02	0.0	9.213191e-01	1.511603e-02	0.0	9.332528e-01	1.296831e-02	0.0	9.436052e-01	1.106978e-02	0.0	9.525561e-01	9.401594e-03	0.0	9.602720e-01	7.938319e-03	0.0	9.669072e-01	6.661974e-03	0.0	9.726012e-01	5.555245e-03	0.0	9.774782e-01	4.596070e-03	0.0	9.816484e-01	3.765414e-03	0.0	9.852105e-01	3.052526e-03	0.0	9.882486e-01	2.436105e-03	0.0	9.908382e-01	1.909316e-03	0.0	9.930427e-01	1.455265e-03	0.0	9.949189e-01	1.067934e-03	0.0	9.965141e-01	7.349898e-04	0.0	9.978700e-01	4.511919e-04	0.0	9.990218e-01	2.075767e-04	0.0	0.000000e+00	0.000000e+00	0.0	1.000000e+00	0.000000e+00	0.0	9.990016e-01	5.738532e-05	0.0	9.978263e-01	1.237655e-04	0.0	9.964431e-01	1.978130e-04	0.0	9.948160e-01	2.839336e-04	0.0	9.929027e-01	3.767475e-04	0.0	9.906549e-01	4.844517e-04	0.0	9.880152e-01	5.951735e-04	0.0	9.849186e-01	7.222134e-04	0.0	9.812889e-01	8.419850e-04	0.0	9.770400e-01	9.678804e-04	0.0	9.720727e-01	1.082093e-03	0.0	9.662751e-01	1.162916e-03	0.0	9.595215e-01	1.208352e-03	0.0	9.516719e-01	1.192198e-03	0.0	9.425726e-01	1.056953e-03	0.0	9.320571e-01	7.834806e-04	0.0	9.199477e-01	3.293055e-04	0.0	9.060595e-01	-3.613181e-04	0.0	8.902052e-01	-1.348896e-03	0.0	8.722017e-01	-2.695821e-03	0.0	8.518800e-01	-4.477210e-03	0.0	8.290950e-01	-6.759853e-03	0.0	8.037342e-01	-9.569716e-03	0.0	7.757388e-01	-1.295320e-02	0.0	7.451174e-01	-1.696376e-02	0.0	7.119453e-01	-2.155088e-02	0.0	6.763876e-01	-2.666269e-02	0.0	6.386903e-01	-3.214098e-02	0.0	5.991919e-01	-3.780832e-02	0.0	5.583071e-01	-4.340320e-02	0.0	5.165218e-01	-4.864778e-02	0.0	4.743659e-01	-5.319600e-02	0.0	4.323892e-01	-5.657217e-02	0.0	3.911751e-01	-5.857731e-02	0.0	3.512799e-01	-5.920683e-02	0.0	3.131933e-01	-5.857527e-02	0.0	2.773028e-01	-5.707052e-02	0.0	2.438763e-01	-5.505401e-02	0.0	2.130882e-01	-5.263873e-02	0.0	1.850111e-01	-5.002060e-02	0.0	1.596500e-01	-4.721673e-02	0.0	1.369343e-01	-4.432613e-02	0.0	1.167438e-01	-4.141484e-02	0.0	9.892402e-02	-3.851836e-02	0.0	8.330078e-02	-3.564669e-02	0.0	6.968199e-02	-3.283898e-02	0.0	5.787391e-02	-3.011718e-02	0.0	4.768738e-02	-2.749335e-02	0.0	3.895118e-02	-2.494496e-02	0.0	3.149805e-02	-2.248357e-02	0.0	2.516881e-02	-2.013218e-02	0.0	1.981735e-02	-1.790693e-02	0.0	1.531574e-02	-1.580398e-02	0.0	1.161590e-02	-1.371345e-02	0.0	8.551570e-03	-1.177504e-02	0.0	6.063657e-03	-9.927043e-03	0.0	4.145696e-03	-8.121474e-03	0.0	2.588708e-03	-6.496589e-03	0.0	1.584792e-03	-4.873085e-03	0.0	7.739863e-04	-3.459786e-03	0.0	4.074413e-04	-2.138728e-03	0.0	1.871407e-04	-9.823331e-04	0.0	1.000400e+00	0.000000e+00	0.0	1.000802e+00	0.000000e+00	0.0	1.001210e+00	0.000000e+00	0.0	1.001624e+00	0.000000e+00	0.0	1.002048e+00	0.000000e+00	0.0	1.002485e+00	0.000000e+00	0.0	1.002937e+00	0.000000e+00	0.0	1.003406e+00	0.000000e+00	0.0	1.003896e+00	0.000000e+00	0.0	1.004409e+00	0.000000e+00	0.0	1.004949e+00	0.000000e+00	0.0	1.005519e+00	0.000000e+00	0.0	1.006122e+00	0.000000e+00	0.0	1.006761e+00	0.000000e+00	0.0	1.007442e+00	0.000000e+00	0.0	1.008167e+00	0.000000e+00	0.0	1.008942e+00	0.000000e+00	0.0	1.009770e+00	0.000000e+00	0.0	1.010657e+00	0.000000e+00	0.0	1.011608e+00	0.000000e+00	0.0	1.012630e+00	0.000000e+00	0.0	1.013727e+00	0.000000e+00	0.0	1.014907e+00	0.000000e+00	0.0	1.016177e+00	0.000000e+00	0.0	1.017544e+00	0.000000e+00	0.0	1.019017e+00	0.000000e+00	0.0	1.020605e+00	0.000000e+00	0.0	1.022316e+00	0.000000e+00	0.0	1.024162e+00	0.000000e+00	0.0	1.026154e+00	0.000000e+00	0.0	1.028303e+00	0.000000e+00	0.0	1.030622e+00	0.000000e+00	0.0	1.033126e+00	0.000000e+00	0.0	1.035829e+00	0.000000e+00	0.0	1.038749e+00	0.000000e+00	0.0	1.041901e+00	0.000000e+00	0.0	1.045306e+00	0.000000e+00	0.0	1.048984e+00	0.000000e+00	0.0	1.052957e+00	0.000000e+00	0.0	1.057249e+00	0.000000e+00	0.0	1.061885e+00	0.000000e+00	0.0	1.066895e+00	0.000000e+00	0.0	1.072307e+00	0.000000e+00	0.0	1.078155e+00	0.000000e+00	0.0	1.084473e+00	0.000000e+00	0.0	1.091300e+00	0.000000e+00	0.0	1.098677e+00	0.000000e+00	0.0	1.106649e+00	0.000000e+00	0.0	1.115263e+00	0.000000e+00	0.0	1.124571e+00	0.000000e+00	0.0	1.134629e+00	0.000000e+00	0.0	1.145498e+00	0.000000e+00	0.0	1.157244e+00	0.000000e+00	0.0	1.169936e+00	0.000000e+00	0.0	1.183652e+00	0.000000e+00	0.0	1.198474e+00	0.000000e+00	0.0	1.214492e+00	0.000000e+00	0.0	1.231801e+00	0.000000e+00	0.0	1.250507e+00	0.000000e+00	0.0	1.270721e+00	0.000000e+00	0.0	1.292566e+00	0.000000e+00	0.0	1.316173e+00	0.000000e+00	0.0	1.341685e+00	0.000000e+00	0.0	1.369254e+00	0.000000e+00	0.0	1.399047e+00	0.000000e+00	0.0	1.431244e+00	0.000000e+00	0.0	1.466037e+00	0.000000e+00	0.0	1.503638e+00	0.000000e+00	0.0	1.544273e+00	0.000000e+00	0.0	1.588185e+00	0.000000e+00	0.0	1.635640e+00	0.000000e+00	0.0	1.686923e+00	0.000000e+00	0.0	1.742344e+00	0.000000e+00	0.0	1.802235e+00	0.000000e+00	0.0	1.866959e+00	0.000000e+00	0.0	1.936904e+00	0.000000e+00	0.0	2.012492e+00	0.000000e+00	0.0	2.094178e+00	0.000000e+00	0.0	2.182454e+00	0.000000e+00	0.0	2.277853e+00	0.000000e+00	0.0	2.380947e+00	0.000000e+00	0.0	2.492359e+00	0.000000e+00	0.0	2.612759e+00	0.000000e+00	0.0	2.742873e+00	0.000000e+00	0.0	2.883484e+00	0.000000e+00	0.0	3.035439e+00	0.000000e+00	0.0	3.199653e+00	0.000000e+00	0.0	3.377115e+00	0.000000e+00	0.0	3.568895e+00	0.000000e+00	0.0	3.776147e+00	0.000000e+00	0.0	4.000120e+00	0.000000e+00	0.0	4.242162e+00	0.000000e+00	0.0	4.503731e+00	0.000000e+00	0.0	4.786403e+00	0.000000e+00	0.0	5.091880e+00	0.000000e+00	0.0	5.422002e+00	0.000000e+00	0.0	5.778757e+00	0.000000e+00	0.0	6.164295e+00	0.000000e+00	0.0	6.580936e+00	0.000000e+00	0.0	7.031191e+00	0.000000e+00	0.0	7.517772e+00	0.000000e+00	0.0	8.043608e+00	0.000000e+00	0.0	8.611868e+00	0.000000e+00	0.0	9.225973e+00	0.000000e+00	0.0	9.889622e+00	0.000000e+00	0.0	1.060681e+01	0.000000e+00	0.0	1.138187e+01	0.000000e+00	0.0	1.221945e+01	0.000000e+00	0.0	1.312460e+01	0.000000e+00	0.0	1.410278e+01	0.000000e+00	0.0	1.515988e+01	0.000000e+00	0.0	1.630226e+01	0.000000e+00	0.0	1.753681e+01	0.000000e+00	0.0	1.887095e+01	0.000000e+00	0.0	2.031273e+01	0.000000e+00	0.0	2.187083e+01	0.000000e+00	0.0	2.355463e+01	0.000000e+00	0.0	2.537428e+01	0.000000e+00	0.0	2.734073e+01	0.000000e+00	0.0	2.946583e+01	0.000000e+00	0.0	3.176238e+01	0.000000e+00	0.0	3.424420e+01	0.000000e+00	0.0	3.692625e+01	0.000000e+00	0.0	3.982469e+01	0.000000e+00	0.0	4.295696e+01	0.000000e+00	0.0	4.634193e+01	0.000000e+00	0.0	5.000000e+01	0.000000e+00	0.0	4.993909e+01	2.442448e+00	0.0	4.975651e+01	4.878824e+00	0.0	4.945271e+01	7.303071e+00	0.0	4.902845e+01	9.709161e+00	0.0	4.848479e+01	1.209111e+01	0.0	4.782307e+01	1.444300e+01	0.0	4.704494e+01	1.675899e+01	0.0	4.615233e+01	1.903331e+01	0.0	4.514747e+01	2.126030e+01	0.0	4.403286e+01	2.343444e+01	0.0	4.281125e+01	2.555032e+01	0.0	4.148570e+01	2.760268e+01	0.0	4.005949e+01	2.958642e+01	0.0	3.853618e+01	3.149659e+01	0.0	3.691954e+01	3.332846e+01	0.0	3.521360e+01	3.507748e+01	0.0	3.342261e+01	3.673928e+01	0.0	3.155100e+01	3.830974e+01	0.0	2.960344e+01	3.978496e+01	0.0	2.758477e+01	4.116127e+01	0.0	2.550000e+01	4.243524e+01	0.0	2.335432e+01	4.360372e+01	0.0	2.115307e+01	4.466379e+01	0.0	1.890171e+01	4.561281e+01	0.0	1.660585e+01	4.644844e+01	0.0	1.427118e+01	4.716859e+01	0.0	1.190353e+01	4.777147e+01	0.0	9.508761e+00	4.825558e+01	0.0	7.092842e+00	4.861972e+01	0.0	4.661775e+00	4.886299e+01	0.0	2.221604e+00	4.898477e+01	0.0	-2.216039e-01	4.898477e+01	0.0	-2.661775e+00	4.886299e+01	0.0	-5.092842e+00	4.861972e+01	0.0	-7.508761e+00	4.825558e+01	0.0	-9.903526e+00	4.777147e+01	0.0	-1.227118e+01	4.716859e+01	0.0	-1.460585e+01	4.644844e+01	0.0	-1.690171e+01	4.561281e+01	0.0	-1.915307e+01	4.466379e+01	0.0	-2.135432e+01	4.360372e+01	0.0	-2.350000e+01	4.243524e+01	0.0	-2.558477e+01	4.116127e+01	0.0	-2.760344e+01	3.978496e+01	0.0	-2.955100e+01	3.830974e+01	0.0	-3.142261e+01	3.673928e+01	0.0	-3.321360e+01	3.507748e+01	0.0	-3.491954e+01	3.332846e+01	0.0	-3.653618e+01	3.149659e+01	0.0	-3.805949e+01	2.958642e+01	0.0	-3.948570e+01	2.760268e+01	0.0	-4.081125e+01	2.555032e+01	0.0	-4.203286e+01	2.343444e+01	0.0	-4.314747e+01	2.126030e+01	0.0	-4.415233e+01	1.903331e+01	0.0	-4.504494e+01	1.675899e+01	0.0	-4.582307e+01	1.444300e+01	0.0	-4.648479e+01	1.209111e+01	0.0	-4.702845e+01	9.709161e+00	0.0	-4.745271e+01	7.303071e+00	0.0	-4.775651e+01	4.878824e+00	0.0	-4.793909e+01	2.442448e+00	0.0	-4.800000e+01	6.000769e-15	0.0	-4.793909e+01	-2.442448e+00	0.0	-4.775651e+01	-4.878824e+00	0.0	-4.745271e+01	-7.303071e+00	0.0	-4.702845e+01	-9.709161e+00	0.0	-4.648479e+01	-1.209111e+01	0.0	-4.582307e+01	-1.444300e+01	0.0	-4.504494e+01	-1.675899e+01	0.0	-4.415233e+01	-1.903331e+01	0.0	-4.314747e+01	-2.126030e+01	0.0	-4.203286e+01	-2.343444e+01	0.0	-4.081125e+01	-2.555032e+01	0.0	-
[...]
POINT_DATA 16128

SCALARS Density double 1
LOOKUP_TABLE default
4.130777e+05	2.389342e+05	4.473212e+05	5.269139e+05	4.532167e+05	4.497991e+05	4.260872e+05	4.329592e+05	1.080622e+05	1.261319e+05	1.319791e+05	1.449377e+05	1.373638e+05	1.005922e+05	9.443872e+04	3.370717e+05	1.549028e+05	6.548992e+05	6.586887e+05	8.201341e+05	4.852721e+05	7.134577e+05	4.275137e+05	3.119118e+06	3.087836e+06	4.916814e+06	3.764692e+06	7.380684e+06	2.692383e+06	1.314291e+07	1.302580e+07	4.789938e+07	4.800957e+07	1.853332e+06	1.951430e+06	6.302423e+07	6.299565e+07	6.469595e+07	4.128128e+06	2.717665e+07	4.148218e+07	8.146978e+07	8.336438e+07	1.260172e+08	1.266754e+08	4.391387e+07	4.400682e+07	2.414713e+07	2.584943e+07	1.726731e+08	1.727508e+08	3.066800e+08	3.110479e+08	1.971234e+08	1.958272e+08	6.983664e+07	5.693281e+07	3.057114e+07	3.016998e+07	3.560646e+07	3.609886e+07	3.380733e+07	9.901296e+05	5.062369e+07	5.111239e+07	7.182519e+07	8.469862e+07	8.470582e+07	6.812938e+07	4.555491e+07	3.274172e+07	4.703079e+07	5.185936e+07	7.274825e+07	7.304380e+07	6.364696e+07	6.363806e+07	9.820813e+07	9.820533e+07	8.415404e+07	8.620246e+07	8.200110e+07	8.354880e+07	8.167865e+07	8.064589e+07	7.745777e+07	7.744428e+07	6.171747e+07	4.856550e+07	6.005101e+07	8.180688e+07	9.376349e+07	9.376960e+07	9.824187e+07	9.822195e+07	7.969991e+07	7.970011e+07	7.571357e+07	7.571440e+07	8.023468e+07	6.633661e+07	5.187629e+07	4.613005e+07	2.004516e+07	2.003061e+07	1.963278e+07	1.963227e+07	1.872633e+07	1.872544e+07	1.872722e+07	1.872793e+07	4.450072e+06	4.450277e+06	4.314689e+06	4.314666e+06	3.663727e+06	5.021429e+06	6.007805e+06	6.007796e+06	1.725254e+06	1.725750e+06	1.673141e+06	1.673243e+06	1.238997e+06	1.240311e+06	9.933417e+05	1.335601e+07	1.015113e+07	9.854896e+07	1.068015e+07	1.041069e+07	2.613795e+07	2.578201e+07	2.348120e+07	2.324495e+07	2.114007e+07	2.100331e+07	1.890391e+07	1.877739e+07	1.862601e+07	1.875170e+07	1.850188e+07	2.581195e+07	1.177794e+08	1.003133e+07	9.524637e+06	1.259631e+07	1.247396e+07	1.217675e+07	1.204292e+07	1.240280e+07	1.216573e+07	1.216834e+07	1.208673e+07	2.155987e+07	2.108338e+07	2.068627e+07	2.054361e+07	2.056092e+07	2.056142e+07	2.577022e+07	2.577380e+07	2.576959e+07	2.600055e+07	8.841432e+06	1.166054e+07	1.170271e+07	5.641812e+07	5.640300e+07	5.658636e+07	1.740225e+07	1.739153e+07	1.471736e+07	1.610936e+07	1.577423e+07	1.596791e+07	1.607896e+07	1.612956e+07	1.604501e+07	1.605493e+07	1.593216e+07	1.593520e+07	5.443063e+07	5.444783e+07	5.443167e+07	5.460261e+07	3.164068e+07	3.156882e+07	1.028088e+08	1.028083e+08	1.028197e+08	1.028083e+08	1.447957e+07	1.458938e+07	1.489887e+07	1.505986e+07	1.507855e+07	1.507759e+07	1.504314e+07	1.503791e+07	1.663666e+07	1.665394e+07	1.669851e+07	1.663011e+07	2.550368e+07	2.491820e+07	2.515818e+07	2.510981e+07	1.649450e+07	1.649400e+07	1.647868e+07	1.641127e+07	1.246096e+07	1.253734e+07	1.248826e+07	1.243472e+07	1.240587e+07	1.235589e+07	1.238713e+07	1.233209e+07	1.357424e+07	1.356927e+07	1.356852e+07	1.356871e+07	1.565212e+07	1.564872e+07	1.565200e+07	1.565066e+07	1.320832e+07	1.321267e+07	3.839693e+06	3.838274e+06	3.865287e+06	3.888558e+06	5.717563e+06	5.707641e+06	5.715936e+06	5.703190e+06	3.400293e+06	3.392124e+06	3.392483e+06	3.392587e+06	3.392608e+06	1.004761e+06	1.002132e+06	1.002209e+06	1.002571e+06	1.004864e+06	1.004058e+06	1.015895e+06	1.015519e+06	1.014304e+06	1.014345e+06	1.013619e+06	1.012856e+06	1.013119e+06	1.030102e+06	1.031117e+06	1.042359e+06	1.035956e+06	2.345074e+06	2.356624e+06	2.355033e+06	2.342198e+06	3.806738e+06	3.860912e+06	3.868835e+06	3.907431e+06	1.269171e+07	1.272829e+07	1.931180e+07	1.978426e+07	5.892096e+07	5.909839e+07	5.352901e+07	5.345432e+07	7.934417e+07	7.932981e+07	1.477894e+08	1.470336e+08	1.541650e+08	1.536879e+08	1.913122e+08	1.905296e+08	2.439255e+08	2.444125e+08	2.393979e+08	2.400333e+08	2.115149e+08	2.119433e+08	1.765953e+08	1.764571e+08	4.206669e+08	1.954180e+08	1.960146e+08	1.653752e+08	1.682033e+08	1.713587e+08	1.641181e+08	1.464062e+08	1.468695e+08	4.946119e+08	4.734992e+08	4.069061e+08	4.140412e+08	4.577521e+08	4.576814e+08	4.629984e+08	4.640076e+08	2.718537e+09	2.718423e+09	2.708745e+09	2.708537e+09	2.513139e+09	2.512789e+09	4.658860e+09	4.662508e+09	7.503921e+09	7.474569e+09	7.574748e+09	7.578621e+09	8.494894e+09	8.354971e+09	6.723970e+09	6.780191e+09	4.845757e+09	4.888133e+09	1.354325e+10	1.332486e+10	9.677376e+09	9.691101e+09	9.823308e+09	9.779786e+09	1.462092e+10	1.458110e+10	1.408540e+10	1.418953e+10	1.339777e+10	1.343387e+10	1.373711e+10	1.369236e+10	6.037132e+09	6.032795e+09	1.392291e+10	1.358763e+10	1.579599e+10	1.085369e+10	1.109870e+10	2.218270e+10	1.257768e+10	5.677685e+09	5.704444e+09	1.221476e+10	1.639281e+10	3.395864e+09	3.551811e+09	2.236002e+09	2.214222e+09	2.286034e+09	2.282066e+09	1.900946e+09	1.900537e+09	1.162224e+08	1.164407e+08	3.700665e+07	2.551009e+07	3.906963e+07	3.911578e+07	3.859511e+07	3.862433e+07	2.274032e+06	2.236036e+06	2.734166e+06	2.736638e+06	7.658219e+05	7.543055e+05	1.014874e+06	1.014449e+06	1.003264e+08	9.215109e+06	9.845438e+07	3.445625e+07	3.336857e+07	2.539104e+07	2.468970e+07	2.308770e+07	2.305197e+07	2.012660e+07	1.992712e+07	1.840018e+07	1.819466e+07	1.801172e+07	1.808143e+07	1.784067e+07	2.583162e+07	1.176565e+08	9.390716e+06	9.337960e+06	1.258630e+07	1.228544e+07	1.205140e+07	1.195919e+07	1.220749e+07	1.210713e+07	1.213377e+07	1.214727e+07	2.172576e+07	2.076312e+07	2.054015e+07	2.057961e+07	2.055739e+07	2.056050e+07	2.576976e+07	2.589569e+07	2.593193e+07	2.604680e+07	8.927610e+06	1.181685e+07	1.173462e+07	1.169089e+07	4.910697e+07	4.890855e+07	4.892232e+07	4.892270e+07	1.472756e+07	1.538550e+07	1.533240e+07	1.599915e+07	1.601736e+07	1.598109e+07	1.596272e+07	1.605466e+07	1.605113e+07	1.593023e+07	5.442446e+07	5.444085e+07	5.441812e+07	5.442004e+07	3.170855e+07	3.153904e+07	1.027791e+08	1.027783e+08	1.027977e+08	1.027919e+08	2.890282e+07	2.891499e+07	1.443991e+07	1.447808e+07	1.454241e+07	1.458825e+07	1.461454e+07	1.468250e+07	1.631113e+07	1.680594e+07	1.663597e+07	1.666642e+07	2.556570e+07	2.488987e+07	2.506074e+07	2.498314e+07	1.637657e+07	1.637270e+07	1.636422e+07	1.625610e+07	1.227171e+07	1.238573e+07	1.231843e+07	1.233414e+07	1.231833e+07	1.228107e+07	1.233565e+07	1.224057e+07	1.357246e+07	1.357013e+07	1.357154e+07	1.356707e+07	1.564752e+07	1.564794e+07	1.565076e+07	1.564604e+07	1.323356e+07	1.323196e+07	3.842423e+06	3.849604e+06	5.228384e+06	5.256514e+06	5.714634e+06	5.692369e+06	3.390310e+06	3.398890e+06	3.396772e+06	3.391042e+06	3.931348e+06	3.934499e+06	3.931636e+06	1.003663e+06	1.000703e+06	1.001331e+06	1.002119e+06	9.998817e+05	9.998842e+05	1.012176e+06	1.014834e+06	1.013901e+06	3.734052e+07	2.062466e+07	2.381837e+07	3.545161e+07	3.207226e+07	2.247889e+07	2.176787e+07	2.429154e+07	2.437099e+07	1.980000e+07	1.951733e+07	1.930313e+07	1.998529e+07	1.976889e+07	1.811087e+07	1.789204e+07	1.846898e+07	1.840234e+07	9.196351e+06	9.234158e+06	1.253669e+07	1.230515e+07	1.203371e+07	1.201950e+07	1.238289e+07	1.234413e+07	1.217787e+07	1.223008e+07	2.184651e+07	2.968686e+07	2.968820e+07	2.959065e+07	2.959223e+07	2.758522e+07	2.770175e+07	2.587391e+07	2.595109e+07	2.773540e+07	2.768655e+07	1.124930e+07	1.112664e+07	4.912056e+07	4.910647e+07	4.910358e+07	4.892156e+07	4.892124e+07	1.468044e+07	1.530455e+07	1.529253e+07	1.592216e+07	1.602501e+07	1.592394e+07	1.594319e+07	1.594374e+07	5.443169e+07	5.442065e+07	5.440481e+07	5.439514e+07	5.440138e+07	1.027611e+08	1.027543e+08	1.028105e+08	1.028196e+08	1.027469e+08	1.027387e+08	2.889347e+07	2.888963e+07	2.889359e+07	2.892733e+07	2.892640e+07	2.540516e+07	2.540753e+07	2.534775e+07	2.549821e+07	2.171331e+07	1.625232e+07	1.671867e+07	1.638091e+07	1.649154e+07	2.508089e+07	1.833163e+07	2.485381e+07	1.966560e+07	1.624422e+07	1.525502e+07	1.626756e+07	1.625919e+07	1.222606e+07	7.982529e+06	1.225510e+07	1.234681e+07	1.225586e+07	1.233490e+07	1.223960e+07	1.231931e+07	1.357123e+07	1.356966e+07	1.357136e+07	1.357093e+07	1.564699e+07	1.564266e+07	2.766812e+07	2.077682e+07	2.077349e+07	3.877746e+06	3.865204e+06	3.860261e+06	5.258401e+06	5.750372e+06	5.704946e+06	3.396710e+06	3.389895e+06	5.965753e+06	5.963754e+06	5.958224e+06	3.930069e+06	3.931011e+06	1.010711e+06	1.006108e+06	1.005292e+06	1.002965e+06	1.032231e+06	1.025635e+06	1.018359e+06	1.013066e+06	1.017571e+06	3.682721e+07	2.434306e+07	4.012539e+07	4.094047e+07	3.547999e+07	2.011790e+07	2.011818e+07	2.227578e+07	2.213686e+07	2.292406e+07	2.606159e+07	1.911129e+07	1.868721e+07	1.878690e+07	1.730720e+07	1.731295e+07	1.842424e+07	1.853941e+07	8.822539e+06	9.074399e+06	1.238192e+07	1.220781e+07	1.190491e+07	1.180919e+07	1.237288e+07	1.213579e+07	1.190761e+07	1.195885e+07	2.176145e+07	2.984291e+07	2.984643e+07	2.965858e+07	2.993218e+07	2.768204e+07	2.783911e+07	2.598783e+07	2.598511e+07	2.774371e+07	2.769075e+07	1.122115e+07	1.111980e+07	1.112996e+07	1.096280e+07	1.097276e+07	1.094801e+07	1.090628e+07	5.511471e+07	5.514847e+07	5.514545e+07	1.524868e+07	1.523260e+07	1.594208e+07	1.594298e+07	1.594304e+07	5.442498e+07	5.455538e+07	5.455721e+07	5.457420e+07	5.439947e+07	1.027556e+08	1.027514e+08	1.028213e+08	1.028124e+08	1.027402e+08	1.027388e+08	2.892879e+07	2.892835e+07	2.893744e+07	1.013487e+08	1.013598e+08	2.552187e+07	2.564998e+07	2.562681e+07	2.579027e+07	2.186105e+07	1.630198e+07	1.648111e+07	1.628736e+07	1.633715e+07	1.849459e+07	1.816008e+07	1.959776e+07	1.957430e+07	1.521161e+07	1.525248e+07	1.633947e+07	1.627686e+07	7.909800e+06	7.882298e+06	1.234993e+07	1.227206e+07	1.232543e+07	1.233377e+07	1.232172e+07	1.231981e+07	1.357340e+07	1.356942e+07	1.356957e+07	1.356939e+07	1.566837e+07	1.565829e+07	2.766688e+07	2.078855e+07	2.079201e+07	3.886243e+06	3.883598e+06	5.263175e+06	5.260024e+06	5.238915e+06	5.242469e+06	5.964630e+06	5.963663e+06	5.960873e+06	5.963802e+06	5.970376e+06	5.966824e+06	5.967030e+06	1.878389e+06	1.911143e+06	1.883347e+06	1.012607e+06	1.027533e+06	1.024969e+06	1.026146e+06	1.026725e+06	1.016602e+06	3.115023e+07	4.577969e+07	5.638438e+07	4.314590e+07	3.822723e+07	5.282960e+07	2.086851e+07	2.086503e+07	5.637479e+07	2.517451e+07	2.517179e+07	2.516730e+07	8.872859e+06	9.094526e+06	1.198987e+07	1.268412e+07	1.401267e+07	5.844694e+07	2.265852e+07	1.178941e+08	6.929366e+06	6.837758e+06	1.213790e+07	1.186398e+07	1.174222e+07	1.176833e+07	2.099229e+07	2.074820e+07	2.376601e+07	2.316327e+07	2.318956e+07	1.276943e+08	1.279955e+08	1.277434e+08	1.277383e+08	2.674018e+07	2.675732e+07	2.673045e+07	2.667182e+07	1.118853e+07	1.104002e+07	1.096969e+07	1.096484e+07	1.110501e+07	1.089461e+07	1.103378e+07	5.533603e+07	5.516776e+07	5.514447e+07	1.544966e+07	1.525923e+07	1.522004e+07	5.437941e+07	5.437940e+07	1.171995e+07	1.040116e+08	1.040126e+08	1.038535e+08	1.038545e+08	1.017769e+08	1.017791e+08	1.017937e+08	1.017878e+08	1.013529e+08	1.013584e+08	1.013710e+08	1.013693e+08	1.013812e+08	1.013944e+08	2.557993e+07	2.569669e+07	2.552622e+07	2.581327e+07	2.572477e+07	2.572138e+07	1.626564e+07	1.628877e+07	1.845907e+07	1.824765e+07	1.822342e+07	1.809856e+07	1.953690e+07	1.952439e+07	1.519726e+07	1.524860e+07	1.632595e+07	1.627669e+07	7.968549e+06	7.796384e+06	1.225844e+07	1.225983e+07	1.224456e+07	1.224286e+07	1.223365e+07	1.231171e+07	1.457927e+07	1.458568e+07	1.353504e+07	1.353448e+07	1.543635e+07	1.544411e+07	2.767495e+07	2.078379e+07	2.078308e+07	2.077847e+07	2.077754e+07	2.078590e+07	5.257992e+06	5.238765e+06	5.223396e+06	5.969792e+06	5.961420e+06	5.959900e+06	5.959523e+06	5.959037e+06	5.952379e+06	5.963786e+06	1.873449e+06	1.873764e+06	1.875880e+06	1.876904e+06	1.028177e+06	1.028782e+06	1.029614e+06	1.030276e+06	1.025611e+06	3.100187e+07	4.217208e+07	5.197435e+07	5.459153e+07	5.469981e+07	5.636348e+07	2.088735e+07	2.086130e+07	2.085816e+07	2.087088e+07	5.675538e+07	9.095593e+06	8.934701e+06	8.871319e+06	1.258519e+07	1.272470e+07	1.398247e+07	5.846328e+07	2.265961e+07	1.178380e+08	6.789018e+06	6.724257e+06	1.215460e+07	1.193426e+07	1.183866e+07	1.188816e+07	2.113257e+07	2.049806e+07	2.354018e+07	2.317075e+07	2.322717e+07	1.276911e+08	1.276957e+08	1.277382e+08	1.277382e+08	2.668607e+07	2.673444e+07	2.667442e+07	2.662347e+07	1.122446e+07	1.113972e+07	1.110113e+07	2.260931e+07	2.267514e+07	2.261435e+07	2.257768e+07	2.281933e+07	2.274089e+07	2.273712e+07	5.442059e+07	5.440939e+07	5.438023e+07	5.438138e+07	5.438163e+07	1.172281e+07	1.040113e+08	1.040007e+08	1.038521e+08	1.038534e+08	1.017765e+08	1.017786e+08	1.017884e+08	1.018024e+08	1.013611e+08	1.013513e+08	1.013589e+08	3.613475e+07	1.013966e+08	1.014555e+08	2.568675e+07	2.574944e+07	2.579523e+07	2.561175e+07	2.580195e+07	2.582344e+07	1.825243e+07	1.831698e+07	1.836222e+07	1.812856e+07	1.822603e+07	1.815663e+07	1.518916e+07	1.523172e+07	1.522237e+07	1.524217e+07	7.941997e+06	7.891960e+06	7.878163e+06	7.868254e+06	1.583909e+07	1.577333e+07	1.441312e+07	1.432440e+07	1.433908e+07	1.439456e+07	1.458619e+07	1.457560e+07	1.356727e+07	1.354073e+07	1.543286e+07	1.544930e+07	2.770267e+07	2.078165e+07	2.078536e+07	2.078369e+07	2.078561e+07	5.294702e+06	5.273823e+06	5.234532e+06	5.234885e+06	5.958907e+06	5.969575e+06	5.990531e+06	5.985182e+06	5.991717e+06	5.968071e+06	5.951251e+06	1.887354e+06	1.889810e+06	1.889440e+06	1.888537e+06	1.031321e+06	1.028526e+06	1.025697e+06	1.025704e+06	1.027069e+06	5.661960e+07	4.449272e+07	4.565981e+07	5.449862e+07	5.506368e+07	3.644509e+07	3.838475e+07	1.367695e+07	1.351796e+07	5.679588e+07	4.709714e+07	4.702302e+07	9.610878e+06	9.638986e+06	1.689595e+07	1.698457e+07	1.000098e+07	1.004215e+07	3.067408e+07	7.236949e+06	1.183805e+08	1.183852e+08	1.347810e+07	1.328758e+07	1.282545e+07	1.287943e+07	2.201269e+07	2.083230e+07	2.395583e+07	2.383631e+07	2.354190e+07	3.096817e+07	3.107393e+07	3.096095e+07	3.098548e+07	2.670834e+07	2.669360e+07	2.670874e+07	2.666973e+07	2.670479e+07	2.669201e+07	2.282457e+07	2.257748e+07	2.288953e+07	2.256757e+07	2.253232e+07	2.276712e+07	2.272322e+07	2.269694e+07	5.442392e+07	5.441134e+07	5.440583e+07	1.172519e+07	1.170127e+07	1.185621e+07	2.541242e+07	1.040095e+08	2.512375e+07	2.512153e+07	1.017737e+08	1.017814e+08	1.017969e+08	1.017968e+08	1.016321e+08	1.016238e+08	3.624902e+07	3.620779e+07	3.636730e+07	2.391077e+07	2.399109e+07	2.396693e+07	2.603005e+07	2.581301e+07	8.281261e+07	8.281502e+07	1.818353e+07	1.823202e+07	1.840587e+07	1.821281e+07	1.821060e+07	1.812843e+07	1.518647e+07	1.524330e+07	1.521999e+07	1.522777e+07	7.928660e+06	7.836752e+06	7.863787e+06	7.862912e+06	1.583223e+07	1.577218e+07	1.580926e+07	1.579195e+07	1.457775e+07	1.457445e+07	1.456738e+07	1.461176e+07	1.545025e+07	1.544793e+07	1.544630e+07	1.545016e+07	1.777180e+07	4.447616e+06	4.449232e+06	4.459023e+06	4.469498e+06	4.478331e+06	5.300101e+06	5.258693e+06	5.267180e+06	5.985782e+06	5.991105e+06	7.188273e+06	7.195545e+06	7.186384e+06	6.000162e+06	5.978630e+06	1.887109e+06	1.888500e+06	1.874547e+06	1.882658e+06	1.030373e+06	1.027901e+06	1.025888e+06	1.033806e+06	1.042462e+06	6.510664e+07	4.428956e+07	4.203684e+07	8.495480e+07	8.412395e+07	3.651238e+07	3.852363e+07	1.353026e+07	1.355783e+07	1.360921e+07	5.694044e+07	9.671317e+06	9.662200e+06	9.589007e+06	1.698220e+07	1.698436e+07	9.949111e+06	9.927561e+06	3.064417e+07	3.065439e+07	2.741251e+07	1.183937e+08	1.356237e+07	1.360811e+07	1.308733e+07	1.301082e+07	2.231797e+07	2.157795e+07	2.437104e+07	2.431875e+07	2.382238e+07	3.099790e+07	3.093612e+07	3.098622e+07	3.072593e+07	2.649573e+07	2.651834e+07	2.650702e+07	2.650409e+07	2.654696e+07	2.654567e+07	2.654527e+07	2.274290e+07	2.264486e+07	2.268636e+07	2.263342e+07	2.288032e+07	2.283103e+07	2.285438e+07	1.183869e+07	1.185943e+07	1.189147e+07	1.194936e+07	1.195074e+07	1.203190e+07	2.584497e+07	1.040096e+08	2.530669e+07	2.526135e+07	1.017731e+08	1.017792e+08	1.017976e+08	1.018022e+08	1.016336e+08	1.016192e+08	1.016224e+08	1.015843e+08	2.402294e+07	2.391787e+07	2.403105e+07	2.398764e+07	2.574670e+07	2.573582e+07	2.077526e+07	2.053126e+07	1.810346e+07	1.823530e+07	1.822400e+07	1.814473e+07	1.660459e+07	1.660467e+07	1.520249e+07	1.522423e+07	1.524353e+07	1.520990e+07	8.251432e+06	8.249834e+06	7.869202e+06	7.868637e+06	1.581227e+07	1.581559e+07	1.580881e+07	1.581265e+07	1.462337e+07	1.457651e+07	1.456780e+07	1.461190e+07	1.545254e+07	1.545169e+07	1.545021e+07	1.545146e+07	1.777284e+07	4.454112e+06	4.449224e+06	4.464181e+06	4.468186e+06	5.671707e+06	5.671677e+06	5.648091e+06	5.661383e+06	7.197903e+06	7.192553e+06	7.190477e+06	7.189426e+06	7.194702e+06	7.207776e+06	7.197165e+06	2.479047e+06	2.474177e+06	2.474389e+06	1.898433e+06	1.033245e+06	1.033696e+06	1.054165e+06	1.061633e+06	1.036762e+06	1.958258e+08	6.397326e+07	5.906646e+07	8.186613e+07	8.168505e+07	4.002351e+07	3.958801e+07	1.613240e+07	1.623097e+07	5.834690e+07	5.707939e+07	5.702495e+07	7.157130e+07	7.144731e+07	7.312792e+07	7.314105e+07	7.277414e+07	7.277765e+07	2.868675e+07	1.643034e+07	1.025087e+07	1.024898e+07	7.451662e+07	7.451419e+07	7.579745e+07	7.579166e+07	2.911342e+07	2.845703e+07	2.773734e+07	2.765915e+07	2.708039e+07	2.622895e+07	2.624050e+07	2.600255e+07	2.596066e+07	2.301458e+07	2.301224e+07	2.294115e+07	2.291115e+07	2.269290e+07	2.271961e+07	2.295001e+07	2.280446e+07	2.275502e+07	2.251093e+07	2.248875e+07	2.277700e+07	2.281473e+07	2.291218e+07	1.199526e+07	1.197667e+07	1.203508e+07	1.332693e+08	1.333714e+08	1.333663e+08	2.027614e+07	1.987568e+07	1.972913e+07	1.965946e+07	8.676217e+07	8.677958e+07	8.680208e+07	8.680577e+07	1.016220e+08	1.016261e+08	1.015632e+08	1.015791e+08	1.015739e+08	2.402589e+07	2.398038e+07	2.394533e+07	2.082599e+07	2.080863e+07	2.095101e+07	2.085217e+07	2.072294e+07	2.083355e+07	1.817622e+07	1.812986e+07	1.660366e+07	1.662078e+07	1.525171e+07	1.524673e+07	1.522628e+07	1.517603e+07	8.248442e+06	8.248767e+06	8.258178e+06	8.252780e+06	1.311018e+07	1.310054e+07	1.352163e+07	1.346941e+07	1.349867e+07	1.349223e+07	1.457810e+07	1.457548e+07	2.021436e+07	2.021839e+07	1.545516e+07	1.545513e+07	1.779060e+07	4.463206e+06	4.448090e+06	4.462459e+06	4.468322e+06	4.473100e+06	5.637557e+06	5.659205e+06	5.656505e+06	7.191530e+06	7.190427e+06	7.197851e+06	7.197389e+06	7.198029e+06	7.196997e+06	7.192733e+06	2.477462e+06	2.487236e+06	2.586176e+06	2.579617e+06	2.368465e+06	2.381424e+06	1.056376e+06	1.060109e+06	2.333714e+06	1.959493e+08	5.960847e+07	6.366195e+07	6.337334e+07	6.301451e+07	4.263151e+07	3.927544e+07	2.116675e+07	1.732687e+07	1.798159e+07	2.956816e+07	6.459740e+06	7.153376e+07	7.144849e+07	7.319798e+07	7.321421e+07	7.279046e+07	7.277297e+07	1.637846e+07	1.643032e+07	1.024925e+07	1.025059e+07	7.452618e+07	7.432083e+07	7.580874e+07	7.581118e+07	2.900939e+07	2.806778e+07	2.754422e+07	2.750779e+07	2.713024e+07	2.660785e+07	2.626057e+07	2.599650e+07	2.596659e+07	2.314824e+07	2.310005e+07	2.301654e+07	2.286241e+07	2.257728e+07	2.258124e+07	2.261221e+07	1.679507e+07	1.669767e+07	1.663747e+07	1.666125e+07	1.668324e+07	1.676018e+07	1.679761e+07	1.333989e+08	1.333828e+08	1.332743e+08	1.332503e+08	1.333600e+08	1.333655e+08	2.052324e+07	2.015062e+07	2.009629e+07	1.994704e+07	8.660573e+07	8.663230e+07	8.663106e+07	8.663363e+07	1.016763e+08	1.016286e+08	1.016244e+08	1.015769e+08	2.411683e+07	2.404355e+07	2.399163e+07	2.392879e+07	2.077356e+07	2.078571e+07	2.091565e+07	2.054244e+07	2.046346e+07	2.048641e+07	1.659081e+07	1.664191e+07	1.659847e+07	1.663544e+07	1.641038e+07	1.635754e+07	1.637329e+07	1.637052e+07	8.297251e+06	8.231551e+06	8.266703e+06	8.255594e+06	1.311732e+07	1.306554e+07	1.349779e+07	1.352004e+07	1.349217e+07	1.349515e+07	1.460963e+07	1.458085e+07	2.023577e+07	2.023709e+07	1.550382e+07	1.549011e+07	1.780168e+07	4.475184e+06	4.469639e+06	4.478748e+06	4.475553e+06	6.549245e+06	6.550761e+06	6.553824e+06	6.555756e+06	7.196433e+06	7.208945e+06	7.218812e+06	7.222361e+06	7.225256e+06	7.203155e+06	7.190409e+06	2.586083e+06	2.564381e+06	2.565179e+06	2.568696e+06	2.361470e+06	2.378065e+06	2.347793e+06	2.367176e+06	2.354822e+06	1.065290e+08	5.019154e+07	4.729324e+07	6.332533e+07	6.320835e+07	2.591786e+07	3.929832e+07	7.240103e+07	7.233821e+07	4.150341e+07	2.949445e+07	2.850850e+07	1.956928e+07	1.833107e+07	1.273691e+07	1.281074e+07	6.427265e+06	5.883144e+06	1.648043e+07	1.648118e+07	6.160075e+07	6.16226