# vtk DataFile Version 3.0
vtk output
ASCII
DATASET UNSTRUCTURED_GRID
POINTS 1841 double
1.000000e+02	0.000000e+00	0.0	9.917900e+01	1.278772e+01	0.0	9.672949e+01	2.536546e+01	0.0	9.269168e+01	3.752670e+01	0.0	8.713187e+01	4.907176e+01	0.0	8.014136e+01	5.981105e+01	0.0	7.183494e+01	6.956826e+01	0.0	6.234898e+01	7.818315e+01	0.0	5.183926e+01	8.551428e+01	0.0	4.047833e+01	9.144126e+01	0.0	2.845276e+01	9.586679e+01	0.0	1.595999e+01	9.871818e+01	0.0	3.205158e+00	9.994862e+01	0.0	-9.602303e+00	9.953791e+01	0.0	-2.225209e+01	9.749279e+01	0.0	-3.453651e+01	9.384684e+01	0.0	-4.625383e+01	8.865993e+01	0.0	-5.721167e+01	8.201723e+01	0.0	-6.723009e+01	7.402780e+01	0.0	-7.614460e+01	6.482284e+01	0.0	-8.380881e+01	5.455349e+01	0.0	-9.009689e+01	4.338837e+01	0.0	-9.490557e+01	3.151082e+01	0.0	-9.815592e+01	1.911586e+01	0.0	-9.979454e+01	6.407022e+00	0.0	-9.979454e+01	-6.407022e+00	0.0	-9.815592e+01	-1.911586e+01	0.0	-9.490557e+01	-3.151082e+01	0.0	-9.009689e+01	-4.338837e+01	0.0	-8.380881e+01	-5.455349e+01	0.0	-7.614460e+01	-6.482284e+01	0.0	-6.723009e+01	-7.402780e+01	0.0	-5.721167e+01	-8.201723e+01	0.0	-4.625383e+01	-8.865993e+01	0.0	-3.453651e+01	-9.384684e+01	0.0	-2.225209e+01	-9.749279e+01	0.0	-9.602303e+00	-9.953791e+01	0.0	3.205158e+00	-9.994862e+01	0.0	1.595999e+01	-9.871818e+01	0.0	2.845276e+01	-9.586679e+01	0.0	4.047833e+01	-9.144126e+01	0.0	5.183926e+01	-8.551428e+01	0.0	6.234898e+01	-7.818315e+01	0.0	7.183494e+01	-6.956826e+01	0.0	8.014136e+01	-5.981105e+01	0.0	8.713187e+01	-4.907176e+01	0.0	9.269168e+01	-3.752670e+01	0.0	9.672949e+01	-2.536546e+01	0.0	9.917900e+01	-1.278772e+01	0.0	0.000000e+00	0.000000e+00	0.0	3.445111e-03	3.623701e-03	0.0	7.160986e-03	7.216545e-03	0.0	1.158992e-02	1.026841e-02	0.0	1.626848e-02	1.328497e-02	0.0	2.141181e-02	1.591514e-02	0.0	2.678814e-02	1.853049e-02	0.0	3.254363e-02	2.081989e-02	0.0	3.853739e-02	2.308270e-02	0.0	4.485468e-02	2.509350e-02	0.0	5.141993e-02	2.705520e-02	0.0	5.826027e-02	2.888957e-02	0.0	6.535028e-02	3.068431e-02	0.0	7.268566e-02	3.247074e-02	0.0	8.028006e-02	3.419950e-02	0.0	8.813122e-02	3.588171e-02	0.0	9.627287e-02	3.736381e-02	0.0	1.046981e-01	3.862350e-02	0.0	1.134043e-01	3.969133e-02	0.0	1.223892e-01	4.047048e-02	0.0	1.316425e-01	4.108102e-02	0.0	1.411547e-01	4.155901e-02	0.0	1.509278e-01	4.186341e-02	0.0	1.609527e-01	4.216762e-02	0.0	1.712318e-01	4.232284e-02	0.0	1.817601e-01	4.248182e-02	0.0	1.925356e-01	4.262311e-02	0.0	2.035554e-01	4.274864e-02	0.0	2.148158e-01	4.287691e-02	0.0	2.263102e-01	4.314546e-02	0.0	2.380361e-01	4.342262e-02	0.0	2.499806e-01	4.388491e-02	0.0	2.621346e-01	4.460160e-02	0.0	2.745011e-01	4.533082e-02	0.0	2.870183e-01	4.669436e-02	0.0	2.997237e-01	4.816594e-02	0.0	3.125748e-01	4.993543e-02	0.0	3.255197e-01	5.228664e-02	0.0	3.386299e-01	5.466789e-02	0.0	3.518540e-01	5.728928e-02	0.0	3.652092e-01	6.000040e-02	0.0	3.787146e-01	6.263356e-02	0.0	3.924066e-01	6.492340e-02	0.0	4.062051e-01	6.723105e-02	0.0	4.202009e-01	6.870508e-02	0.0	4.343225e-01	6.981545e-02	0.0	4.485182e-01	7.062831e-02	0.0	4.627968e-01	7.025531e-02	0.0	4.771126e-01	6.988133e-02	0.0	4.913879e-01	6.860541e-02	0.0	5.056462e-01	6.698069e-02	0.0	5.198640e-01	6.513498e-02	0.0	5.339459e-01	6.253027e-02	0.0	5.479911e-01	5.993234e-02	0.0	5.618981e-01	5.692352e-02	0.0	5.757032e-01	5.374991e-02	0.0	5.894348e-01	5.061699e-02	0.0	6.031034e-01	4.763514e-02	0.0	6.166666e-01	4.467629e-02	0.0	6.302179e-01	4.233518e-02	0.0	6.437108e-01	4.042422e-02	0.0	6.570668e-01	3.863489e-02	0.0	6.703915e-01	3.857828e-02	0.0	6.835480e-01	3.852238e-02	0.0	6.964892e-01	3.921060e-02	0.0	7.092108e-01	4.053547e-02	0.0	7.217362e-01	4.184115e-02	0.0	7.340331e-01	4.334135e-02	0.0	7.461186e-01	4.481576e-02	0.0	7.580283e-01	4.571086e-02	0.0	7.697515e-01	4.608438e-02	0.0	7.812292e-01	4.617390e-02	0.0	7.923909e-01	4.468046e-02	0.0	8.033141e-01	4.321892e-02	0.0	8.137824e-01	4.069758e-02	0.0	8.239792e-01	3.807173e-02	0.0	8.338691e-01	3.527288e-02	0.0	8.434731e-01	3.238246e-02	0.0	8.528611e-01	2.965367e-02	0.0	8.620772e-01	2.724529e-02	0.0	8.710494e-01	2.490066e-02	0.0	8.798568e-01	2.295086e-02	0.0	8.884346e-01	2.111779e-02	0.0	8.967842e-01	1.941355e-02	0.0	9.049206e-01	1.790303e-02	0.0	9.128165e-01	1.643718e-02	0.0	9.204831e-01	1.506329e-02	0.0	9.279162e-01	1.374148e-02	0.0	9.351153e-01	1.244931e-02	0.0	9.420822e-01	1.117775e-02	0.0	9.488245e-01	9.946683e-03	0.0	9.553405e-01	8.724485e-03	0.0	9.616403e-01	7.542835e-03	0.0	9.677240e-01	6.378340e-03	0.0	9.735996e-01	5.249528e-03	0.0	9.792688e-01	4.139707e-03	0.0	9.847388e-01	3.061103e-03	0.0	9.900131e-01	2.007050e-03	0.0	9.950964e-01	9.760145e-04	0.0	1.000000e+00	0.000000e+00	0.0	9.950042e-01	2.026155e-04	0.0	9.898199e-01	4.051225e-04	0.0	9.844403e-01	5.572675e-04	0.0	9.788612e-01	6.632012e-04	0.0	9.730783e-01	7.437650e-04	0.0	9.670865e-01	7.640944e-04	0.0	9.608817e-01	7.609972e-04	0.0	9.544594e-01	6.914689e-04	0.0	9.478151e-01	6.052874e-04	0.0	9.409458e-01	4.235079e-04	0.0	9.338458e-01	2.356218e-04	0.0	9.265149e-01	-6.408141e-05	0.0	9.189464e-01	-3.967345e-04	0.0	9.111420e-01	-8.370874e-04	0.0	9.031024e-01	-1.449075e-03	0.0	8.948156e-01	-2.079879e-03	0.0	8.863234e-01	-3.154714e-03	0.0	8.775862e-01	-4.311929e-03	0.0	8.686499e-01	-5.807408e-03	0.0	8.595337e-01	-7.759088e-03	0.0	8.501728e-01	-9.785700e-03	0.0	8.407629e-01	-1.264491e-02	0.0	8.311084e-01	-1.557845e-02	0.0	8.212921e-01	-1.883884e-02	0.0	8.112728e-01	-2.229388e-02	0.0	8.010003e-01	-2.578382e-02	0.0	7.904643e-01	-2.926883e-02	0.0	7.796959e-01	-3.283068e-02	0.0	7.685313e-01	-3.591397e-02	0.0	7.571374e-01	-3.905304e-02	0.0	7.454218e-01	-4.183872e-02	0.0	7.334034e-01	-4.432206e-02	0.0	7.211665e-01	-4.681338e-02	0.0	7.085783e-01	-4.848126e-02	0.0	6.957910e-01	-5.017551e-02	0.0	6.827630e-01	-5.133828e-02	0.0	6.695076e-01	-5.200752e-02	0.0	6.560807e-01	-5.266890e-02	0.0	6.424790e-01	-5.242778e-02	0.0	6.287287e-01	-5.218402e-02	0.0	6.148456e-01	-5.181111e-02	0.0	6.008421e-01	-5.132075e-02	0.0	5.867282e-01	-5.084979e-02	0.0	5.725096e-01	-5.083982e-02	0.0	5.582088e-01	-5.082979e-02	0.0	5.438636e-01	-5.144912e-02	0.0	5.294824e-01	-5.252719e-02	0.0	5.150754e-01	-5.371874e-02	0.0	5.007412e-01	-5.578522e-02	0.0	4.863994e-01	-5.785279e-02	0.0	4.721350e-01	-6.033517e-02	0.0	4.579339e-01	-6.305676e-02	0.0	4.437794e-01	-6.581664e-02	0.0	4.297384e-01	-6.886727e-02	0.0	4.157637e-01	-7.190351e-02	0.0	4.018451e-01	-7.480737e-02	0.0	3.880059e-01	-7.762022e-02	0.0	3.742576e-01	-8.030879e-02	0.0	3.604830e-01	-8.208525e-02	0.0	3.468436e-01	-8.384428e-02	0.0	3.332838e-01	-8.442999e-02	0.0	3.198409e-01	-8.427996e-02	0.0	3.065995e-01	-8.382896e-02	0.0	2.937367e-01	-8.139770e-02	0.0	2.810621e-01	-7.900203e-02	0.0	2.687554e-01	-7.593181e-02	0.0	2.567651e-01	-7.243704e-02	0.0	2.449831e-01	-6.900294e-02	0.0	2.333993e-01	-6.568899e-02	0.0	2.220366e-01	-6.243880e-02	0.0	2.107931e-01	-5.972844e-02	0.0	1.996074e-01	-5.785093e-02	0.0	1.886630e-01	-5.601392e-02	0.0	1.778509e-01	-5.526458e-02	0.0	1.672647e-01	-5.475760e-02	0.0	1.569284e-01	-5.435608e-02	0.0	1.468396e-01	-5.417875e-02	0.0	1.370064e-01	-5.400591e-02	0.0	1.274645e-01	-5.322704e-02	0.0	1.181864e-01	-5.231596e-02	0.0	1.092374e-01	-5.100383e-02	0.0	1.007015e-01	-4.880925e-02	0.0	9.240999e-02	-4.667752e-02	0.0	8.459411e-02	-4.387600e-02	0.0	7.706209e-02	-4.099877e-02	0.0	6.981184e-02	-3.808113e-02	0.0	6.288887e-02	-3.500458e-02	0.0	5.618387e-02	-3.202490e-02	0.0	4.965451e-02	-2.922989e-02	0.0	4.333591e-02	-2.652903e-02	0.0	3.717288e-02	-2.404528e-02	0.0	3.120654e-02	-2.166756e-02	0.0	2.547103e-02	-1.930011e-02	0.0	1.998950e-02	-1.688829e-02	0.0	1.480938e-02	-1.431616e-02	0.0	1.007169e-02	-1.138146e-02	0.0	5.765146e-03	-8.187855e-03	0.0	2.073814e-03	-4.549648e-03	0.0	1.978594e-01	5.135523e-02	0.0	1.886531e-01	5.004550e-02	0.0	8.660077e+01	2.679093e+01	0.0	8.171387e+01	3.582208e+01	0.0	7.570431e+01	2.496298e+01	0.0	7.419217e+01	-1.117865e+01	0.0	7.532719e+01	-2.479040e+01	0.0	8.671629e+01	-1.773087e+01	0.0	8.664737e+01	-4.340005e+00	0.0	4.747141e+01	2.947477e+01	0.0	5.590231e+01	3.209588e+01	0.0	5.063578e+01	3.771055e+01	0.0	7.196132e+01	3.438491e+01	0.0	6.890631e+01	-3.532625e+01	0.0	7.590282e+01	-4.318622e+01	0.0	8.116119e+01	-3.632707e+01	0.0	8.652517e+01	-2.834810e+01	0.0	4.507273e+01	1.990405e+01	0.0	5.503992e+01	2.321151e+01	0.0	6.154919e+01	-5.166519e+01	0.0	6.039138e+01	-6.149597e+01	0.0	6.855137e+01	-6.029701e+01	0.0	6.879131e+01	6.069282e+01	0.0	7.227504e+01	5.162113e+01	0.0	6.083682e+01	6.616575e+01	0.0	4.641948e+01	-6.448015e+01	0.0	4.404958e+01	-7.314622e+01	0.0	5.491875e+01	-6.976081e+01	0.0	6.750119e+01	-4.433003e+01	0.0	4.965207e+01	7.214240e+01	0.0	3.183621e+01	6.278736e+01	0.0	2.704606e+01	5.401521e+01	0.0	3.624951e+01	5.466399e+01	0.0	5.251172e+01	-5.832554e+01	0.0	3.096256e+01	8.224304e+01	0.0	3.727497e+01	7.159291e+01	0.0	4.204144e+01	8.058678e+01	0.0	3.492236e+01	-7.348391e+01	0.0	2.645409e+01	-7.858927e+01	0.0	3.819039e+01	-8.173626e+01	0.0	4.996373e+00	4.771299e+01	0.0	-2.692774e+00	5.466006e+01	0.0	-4.995072e+00	4.363499e+01	0.0	7.471915e-01	7.324347e-02	0.0	7.553213e-01	6.379049e-02	0.0	7.607587e-01	7.446392e-02	0.0	8.703799e-01	-9.642146e-02	0.0	8.914586e-01	-1.427183e-01	0.0	9.092080e-01	-1.095491e-01	0.0	3.791356e-01	1.068853e-01	0.0	3.594864e-01	1.022880e-01	0.0	3.724353e-01	9.209693e-02	0.0	3.946156e-01	7.528600e-02	0.0	3.827574e-01	7.420601e-02	0.0	4.367171e-01	-9.875231e-02	0.0	4.339428e-01	-8.407847e-02	0.0	4.222359e-01	-9.259156e-02	0.0	5.063045e-01	-9.542320e-02	0.0	5.148887e-01	-8.075134e-02	0.0	5.033706e-01	-7.822286e-02	0.0	4.507423e-01	-8.767903e-02	0.0	4.629484e-01	-8.104837e-02	0.0	4.542021e-01	-7.403708e-02	0.0	4.363407e-01	-1.138773e-01	0.0	4.489611e-01	-1.278357e-01	0.0	4.529612e-01	-1.066126e-01	0.0	9.195137e-01	3.724709e-02	0.0	9.130211e-01	2.949131e-02	0.0	9.216093e-01	2.793539e-02	0.0	9.070958e-01	3.946237e-02	0.0	9.040612e-01	2.914032e-02	0.0	9.168795e-01	2.196116e-02	0.0	9.242392e-01	2.039831e-02	0.0	1.597731e-01	-6.142474e-02	0.0	1.664229e-01	-6.643466e-02	0.0	1.392429e-01	-6.076498e-02	0.0	1.453225e-01	-6.532752e-02	0.0	3.699161e-01	7.2
[...]
POINT_DATA 1841

SCALARS Density double 1
LOOKUP_TABLE default
1.291459e+00	1.291540e+00	1.292029e+00	1.292227e+00	1.292149e+00	1.292087e+00	1.292066e+00	1.292035e+00	1.291991e+00	1.291954e+00	1.291924e+00	1.291911e+00	1.291924e+00	1.291966e+00	1.292031e+00	1.292097e+00	1.292152e+00	1.292197e+00	1.292230e+00	1.292254e+00	1.292271e+00	1.292284e+00	1.292293e+00	1.292301e+00	1.292309e+00	1.292316e+00	1.292325e+00	1.292335e+00	1.292348e+00	1.292364e+00	1.292385e+00	1.292413e+00	1.292448e+00	1.292491e+00	1.292540e+00	1.292596e+00	1.292652e+00	1.292694e+00	1.292699e+00	1.292673e+00	1.292630e+00	1.292575e+00	1.292523e+00	1.292468e+00	1.292408e+00	1.292361e+00	1.292398e+00	1.292308e+00	1.291885e+00	1.524547e+00	1.122139e+00	1.155263e+00	1.120620e+00	1.084845e+00	1.045791e+00	1.015197e+00	9.847034e-01	9.645800e-01	9.489454e-01	9.518589e-01	9.607220e-01	9.773196e-01	9.799619e-01	9.649439e-01	9.275923e-01	8.782466e-01	8.375137e-01	7.989007e-01	7.659074e-01	7.459600e-01	7.245868e-01	7.170696e-01	7.257746e-01	8.325455e-01	1.084591e+00	1.204153e+00	1.213026e+00	1.221642e+00	1.233366e+00	1.244022e+00	1.258535e+00	1.261231e+00	1.272758e+00	1.274137e+00	1.263072e+00	1.263492e+00	1.243776e+00	1.213264e+00	1.186426e+00	1.146394e+00	1.093993e+00	1.050013e+00	9.852921e-01	9.157919e-01	8.819888e-01	8.059856e-01	7.488123e-01	7.082333e-01	6.554673e-01	6.327174e-01	5.938341e-01	5.656689e-01	5.456463e-01	5.819237e-01	8.439453e-01	1.158187e+00	1.182892e+00	1.202201e+00	1.222362e+00	1.225114e+00	1.242895e+00	1.240613e+00	1.223687e+00	1.221407e+00	1.195879e+00	1.166025e+00	1.136760e+00	1.087373e+00	1.035862e+00	1.003017e+00	9.522627e-01	9.521637e-01	1.005928e+00	1.046467e+00	1.104430e+00	1.135841e+00	1.166778e+00	1.193002e+00	1.204298e+00	1.215929e+00	1.224244e+00	1.224915e+00	1.230565e+00	1.232488e+00	1.233667e+00	1.236461e+00	1.238559e+00	1.240979e+00	1.244453e+00	1.247766e+00	1.251308e+00	1.255598e+00	1.259283e+00	1.263599e+00	1.268358e+00	1.273891e+00	1.280513e+00	1.286029e+00	1.276711e+00	1.354522e+00	1.339093e+00	1.344824e+00	1.344921e+00	1.347851e+00	1.349855e+00	1.351510e+00	1.354079e+00	1.355601e+00	1.357719e+00	1.360007e+00	1.361771e+00	1.366138e+00	1.365888e+00	1.371497e+00	1.373724e+00	1.371973e+00	1.375950e+00	1.368825e+00	1.371684e+00	1.365938e+00	1.350940e+00	1.342200e+00	1.322839e+00	1.302085e+00	1.282591e+00	1.251610e+00	1.227323e+00	1.205531e+00	1.176033e+00	1.162681e+00	1.128666e+00	1.113635e+00	1.106098e+00	1.093046e+00	1.108358e+00	1.108784e+00	1.128466e+00	1.167905e+00	1.189222e+00	1.214291e+00	1.242762e+00	1.258062e+00	1.274256e+00	1.289925e+00	1.286600e+00	1.294269e+00	1.290392e+00	1.280497e+00	1.276021e+00	1.259545e+00	1.248416e+00	1.234350e+00	1.221118e+00	1.159815e+00	8.426393e-01	6.425228e-01	6.125643e-01	6.361013e-01	6.879649e-01	7.638391e-01	8.026314e-01	9.213830e-01	1.043473e+00	1.100164e+00	1.185580e+00	1.253719e+00	1.296346e+00	1.342019e+00	1.386463e+00	1.393580e+00	1.407924e+00	1.414148e+00	1.385529e+00	1.369597e+00	1.346197e+00	1.291782e+00	1.252822e+00	1.221510e+00	1.172131e+00	1.193204e+00	1.217852e+00	1.247821e+00	1.309485e+00	1.340014e+00	1.380349e+00	1.420449e+00	1.445372e+00	1.467762e+00	1.484266e+00	1.493614e+00	1.505446e+00	1.517607e+00	1.532197e+00	1.553969e+00	1.597501e+00	1.604600e+00	1.710144e+00	1.209098e+00	1.196029e+00	1.292103e+00	1.292147e+00	1.292063e+00	1.292069e+00	1.292327e+00	1.292146e+00	1.291768e+00	1.292036e+00	1.292068e+00	1.292005e+00	1.292147e+00	1.292378e+00	1.292358e+00	1.292335e+00	1.292324e+00	1.292044e+00	1.292110e+00	1.292437e+00	1.292482e+00	1.292445e+00	1.292056e+00	1.292074e+00	1.292025e+00	1.292562e+00	1.292589e+00	1.292529e+00	1.292384e+00	1.291978e+00	1.291862e+00	1.291793e+00	1.291879e+00	1.292508e+00	1.291902e+00	1.291912e+00	1.291947e+00	1.292646e+00	1.292689e+00	1.292634e+00	1.291508e+00	1.291627e+00	1.291490e+00	1.128979e+00	1.091439e+00	1.098755e+00	1.354622e+00	1.346018e+00	1.360270e+00	1.120191e+00	1.164266e+00	1.132026e+00	1.051313e+00	1.090062e+00	1.251318e+00	1.227094e+00	1.235027e+00	1.287779e+00	1.291545e+00	1.287035e+00	1.246660e+00	1.259551e+00	1.247724e+00	1.242663e+00	1.271080e+00	1.252569e+00	1.248821e+00	1.241190e+00	1.244700e+00	1.243543e+00	1.236900e+00	1.238973e+00	1.241363e+00	1.348621e+00	1.358988e+00	1.279842e+00	1.305321e+00	1.131789e+00	1.236047e+00	1.083998e+00	1.257771e+00	1.252759e+00	1.244242e+00	1.223664e+00	1.204454e+00	1.211860e+00	1.268915e+00	1.261976e+00	1.261341e+00	6.494945e-01	6.898881e-01	7.212922e-01	1.345204e+00	1.349667e+00	1.350518e+00	1.261115e+00	1.264474e+00	1.235567e+00	1.229071e+00	1.232126e+00	1.268408e+00	1.283865e+00	1.278100e+00	1.279087e+00	1.286366e+00	1.279848e+00	1.287303e+00	1.251544e+00	1.278470e+00	1.311622e+00	1.297043e+00	1.303949e+00	1.596679e+00	1.629747e+00	1.606145e+00	1.349076e+00	1.340267e+00	1.328919e+00	1.276388e+00	1.258096e+00	1.290016e+00	1.316822e+00	1.338381e+00	1.327204e+00	1.320381e+00	1.338803e+00	1.320946e+00	1.573412e+00	1.574394e+00	1.540841e+00	1.585631e+00	1.580290e+00	1.607213e+00	1.474723e+00	1.442228e+00	1.443860e+00	1.288115e+00	1.214482e+00	1.220811e+00	1.199343e+00	1.347979e+00	1.359512e+00	1.372452e+00	1.371358e+00	1.371605e+00	1.365943e+00	1.368813e+00	1.186315e+00	1.370695e+00	1.128869e+00	1.372759e+00	1.370763e+00	1.372404e+00	1.371977e+00	1.368786e+00	1.365354e+00	1.369809e+00	1.368110e+00	1.367497e+00	1.364183e+00	1.364825e+00	1.371982e+00	1.370602e+00	1.152721e+00	1.150477e+00	1.267536e+00	1.267006e+00	1.276009e+00	1.288828e+00	1.285031e+00	1.280736e+00	1.289493e+00	1.281711e+00	1.217649e+00	1.221196e+00	1.227598e+00	1.293320e+00	1.306736e+00	1.274045e+00	1.284341e+00	1.273854e+00	1.312518e+00	1.277844e+00	1.277189e+00	1.304295e+00	1.296601e+00	1.274614e+00	7.550727e-01	1.195458e+00	1.259762e+00	1.270757e+00	1.270830e+00	1.290470e+00	1.286920e+00	1.283084e+00	1.242525e+00	1.228878e+00	1.290145e+00	1.290739e+00	1.293529e+00	1.291485e+00	1.291306e+00	1.291100e+00	1.291889e+00	1.291832e+00	1.215133e+00	1.209820e+00	1.286776e+00	1.271191e+00	1.299338e+00	1.292964e+00	8.174242e-01	7.982760e-01	1.242502e+00	1.244714e+00	1.191370e+00	8.315155e-01	7.694615e-01	1.292286e+00	1.293388e+00	1.289999e+00	1.296843e+00	1.295602e+00	1.295384e+00	9.988910e-01	1.096726e+00	1.059548e+00	1.044367e+00	1.012525e+00	1.053894e+00	9.776840e-01	1.149459e+00	1.151717e+00	1.118020e+00	1.128296e+00	1.119239e+00	1.086075e+00	1.168859e+00	1.152490e+00	1.036994e+00	9.931362e-01	1.186996e+00	1.198956e+00	1.211421e+00	1.171086e+00	1.206809e+00	1.203577e+00	1.220812e+00	1.221303e+00	1.209839e+00	1.263690e+00	1.216578e+00	1.253420e+00	1.225240e+00	1.228173e+00	1.218534e+00	1.228160e+00	1.064004e+00	1.105337e+00	1.086314e+00	1.214869e+00	1.219848e+00	1.204015e+00	1.215797e+00	1.267092e+00	1.258299e+00	1.233407e+00	1.290578e+00	1.291536e+00	1.197909e+00	1.218618e+00	9.214484e-01	9.830483e-01	9.306013e-01	1.343280e+00	1.340533e+00	1.366518e+00	1.254626e+00	1.245346e+00	1.245078e+00	1.215364e+00	1.335462e+00	1.334839e+00	1.366310e+00	1.319322e+00	1.299274e+00	1.287009e+00	1.295193e+00	1.321201e+00	1.333909e+00	1.351668e+00	1.377113e+00	1.282612e+00	1.272300e+00	1.277652e+00	1.231604e+00	1.222069e+00	1.244045e+00	1.147227e+00	1.232765e+00	1.172255e+00	1.039141e+00	1.023894e+00	1.240007e+00	1.355329e+00	1.351880e+00	1.352126e+00	1.361969e+00	1.362485e+00	1.353797e+00	1.355994e+00	1.122701e+00	1.122443e+00	8.593407e-01	6.207822e-01	8.878368e-01	1.203221e+00	1.167524e+00	1.279033e+00	1.282544e+00	1.126579e+00	1.172707e+00	1.167569e+00	1.292023e+00	1.291954e+00	6.738722e-01	7.270018e-01	7.031255e-01	1.299481e+00	1.311231e+00	1.304308e+00	1.175252e+00	1.166567e+00	1.292107e+00	1.285454e+00	1.272858e+00	1.165841e+00	1.185326e+00	1.207477e+00	1.231969e+00	1.241800e+00	1.218641e+00	1.296032e+00	1.291048e+00	1.298076e+00	1.299589e+00	1.298533e+00	1.259384e+00	1.265782e+00	1.263140e+00	1.363521e+00	1.392161e+00	1.388834e+00	1.371521e+00	1.385036e+00	1.426379e+00	1.436885e+00	1.448991e+00	1.325967e+00	1.333020e+00	1.349755e+00	1.293936e+00	1.294536e+00	1.294156e+00	1.229630e+00	1.167647e+00	1.257968e+00	1.154705e+00	1.101217e+00	1.292699e+00	1.292667e+00	1.229222e+00	1.167671e+00	1.228327e+00	1.370218e+00	1.381207e+00	1.390380e+00	1.368174e+00	1.383222e+00	1.292741e+00	1.292697e+00	1.292638e+00	1.292612e+00	1.292519e+00	1.292581e+00	1.457010e+00	1.308195e+00	1.346009e+00	1.394461e+00	1.425168e+00	1.450069e+00	1.292792e+00	1.292754e+00	1.292829e+00	1.518602e+00	1.510670e+00	1.497866e+00	1.469077e+00	1.472301e+00	1.550082e+00	1.521983e+00	1.534218e+00	1.515928e+00	1.499804e+00	1.502876e+00	1.315224e+00	1.308320e+00	1.314944e+00	1.292869e+00	1.293038e+00	1.293003e+00	1.292534e+00	1.292483e+00	1.292468e+00	1.328562e+00	1.324468e+00	1.338526e+00	1.295115e+00	1.295084e+00	1.296943e+00	1.292769e+00	1.292838e+00	1.292610e+00	1.292428e+00	1.292410e+00	1.292404e+00	1.292431e+00	1.292346e+00	1.292333e+00	1.292353e+00	1.292327e+00	1.292405e+00	1.292367e+00	1.292377e+00	1.292356e+00	1.292343e+00	1.292316e+00	1.292308e+00	1.292283e+00	1.292297e+00	1.292295e+00	1.292260e+00	1.292244e+00	1.292270e+00	1.288005e+00	1.291207e+00	1.291783e+00	1.035933e+00	1.054953e+00	1.027611e+00	1.292159e+00	1.292122e+00	1.292058e+00	1.292159e+00	1.292178e+00	1.291925e+00	9.354878e-01	8.686649e-01	9.320677e-01	1.269127e+00	1.216855e+00	1.197101e+00	1.143562e+00	1.264426e+00	1.257569e+00	1.258427e+00	1.292203e+00	1.292225e+00	9.983436e-01	9.972173e-01	9.816753e-01	9.890091e-01	9.629722e-01	1.292137e+00	1.016316e+00	9.702687e-01	1.015184e+00	9.029100e-01	8.774291e-01	8.466736e-01	1.288205e+00	1.290451e+00	1.293712e+00	1.304564e+00	1.293516e+00	1.292067e+00	1.001329e+00	1.027686e+00	9.618041e-01	1.241367e+00	1.239358e+00	1.254307e+00	1.253491e+00	1.237995e+00	1.248750e+00	1.238579e+00	8.124039e-01	8.581127e-01	1.127898e+00	1.156554e+00	1.151295e+00	7.595421e-01	7.376561e-01	1.294103e+00	1.291402e+00	7.839223e-01	9.441750e-01	8.733717e-01	9.325237e-01	1.292016e+00	1.291962e+00	8.259503e-01	8.356346e-01	1.049159e+00	1.076537e+00	1.200763e+00	6.230831e-01	6.071618e-01	1.212786e+00	6.401950e-01	9.824477e-01	9.889196e-01	1.292314e+00	1.292341e+00	1.010253e+00	1.024706e+00	1.292011e+00	1.291922e+00	1.292271e+00	1.292430e+00	1.291846e+00	1.359463e+00	1.358762e+00	1.292925e+00	1.292588e+00	1.292171e+00	1.292401e+00	1.292383e+00	1.292616e+00	1.292705e+00	1.292207e+00	1.292310e+00	1.292324e+00	1.292354e+00	1.292664e+00	1.293167e+00	1.293278e+00	1.291707e+00	1.291594e+00	1.291960e+00	1.291809e+00	1.292392e+00	1.292161e+00	1.291868e+00	1.291995e+00	1.293302e+00	1.293097e+00	1.292693e+00	1.292568e+00	1.211430e+00	1.268181e+00	1.292262e+00	1.292257e+00	1.292287e+00	1.293231e+00	1.293545e+00	1.294108e+00	1.295285e+00	1.294232e+00	1.291905e+00	1.291755e+00	1.291725e+00	1.292164e+00	1.291730e+00	1.290119e+00	1.289887e+00	1.292488e+00	1.292375e+00	1.292350e+00	1.292591e+00	1.292537e+00	1.292397e+00	1.292380e+00	1.292303e+00	1.291877e+00	1.291894e+00	1.291846e+00	1.292736e+00	1.292830e+00	1.292875e+00	1.292795e+00	1.292106e+00	1.292047e+00	1.292032e+00	1.291953e+00	1.291846e+00	1.291941e+00	1.291772e+00	1.291736e+00	1.292280e+00	1.292361e+00	1.292568e+00	1.292655e+00	1.292615e+00	1.292483e+00	1.292565e+00	1.292461e+00	1.292017e+00	1.292101e+00	1.299296e+00	1.291419e+00	1.291304e+00	1.291831e+00	1.291712e+00	1.292465e+00	1.292908e+00	1.293010e+00	1.291875e+00	1.292425e+00	1.291614e+00	1.293572e+00	1.033527e+00	1.039785e+00	1.291141e+00	1.291522e+00	1.289596e+00	1.291757e+00	1.291918e+00	1.290745e+00	1.291907e+00	1.294205e+00	1.293193e+00	1.294067e+00	1.292233e+00	1.292271e+00	1.292211e+00	1.292358e+00	1.292337e+00	1.291881e+00	1.291778e+00	1.291833e+00	1.292272e+00	1.292187e+00	1.292173e+00	1.292078e+00	1.292722e+00	1.292717e+00	1.292874e+00	1.292757e+00	1.291853e+00	1.292791e+00	1.292706e+00	1.291863e+00	1.291809e+00	1.292366e+00	1.292126e+00	1.292403e+00	1.292487e+00	1.291364e+00	1.292554e+00	1.291662e+00	1.291793e+00	1.291742e+00	1.292435e+00	1.292622e+00	1.292028e+00	1.291780e+00	1.292488e+00	1.292493e+00	1.292442e+00	1.291531e+00	1.291827e+00	1.291989e+00	1.291972e+00	1.291054e+00	1.289987e+00	1.290786e+00	1.293589e+00	1.292704e+00	1.292728e+00	1.291720e+00	1.292487e+00	1.291969e+00	1.225395e+00	1.243519e+00	1.292435e+00	1.292508e+00	1.292032e+00	1.291975e+00	1.291935e+00	1.291657e+00	1.291877e+00	1.292684e+00	1.292678e+00	1.292773e+00	1.292893e+00	1.291984e+00	1.291932e+00	1.291851e+00	1.292165e+00	1.292997e+00	1.292439e+00	1.292530e+00	1.291734e+00	1.291782e+00	1.292699e+00	1.292440e+00	1.292475e+00	1.292754e+00	1.293033e+00	1.293457e+00	1.293514e+00	1.483909e+00	1.466742e+00	1.480487e+00	1.293115e+00	1.293136e+00	1.292930e+00	1.291789e+00	1.292312e+00	1.292115e+00	1.292239e+00	1.290667e+00	1.290624e+00	1.291438e+00	1.290825e+00	1.286481e+00	1.287362e+00	1.291813e+00	1.298218e+00	1.296617e+00	1.295270e+00	1.291091e+00	1.289872e+00	1.293263e+00	1.293040e+00	1.293932e+00	1.293113e+00	1.292042e+00	1.288708e+00	1.002709e+00	9.846762e-01	1.290821e+00	1.294801e+00	1.293926e+00	1.292781e+00	1.295846e+00	1.294025e+00	1.292038e+00	1.292647e+00	1.291834e+00	1.294711e+00	1.352717e+00	1.357554e+00	1.352495e+00	1.285487e+00	1.279662e+00	1.292825e+00	1.294038e+00	1.205937e+00	1.144937e+00	1.138315e+00	1.307106e+00	1.296725e+00	1.292988e+00	1.282634e+00	1.294764e+00	1.296759e+00	1.299345e+00	1.288294e+00	1.286399e+00	1.298599e+00	1.298060e+00	1.295963e+00	1.291501e+00	1.290418e+00	1.284360e+00	1.294790e+00	1.304532e+00	1.304448e+00	1.308043e+00	1.286538e+00	1.284035e+00	1.277311e+00	1.266902e+00	1.267818e+00	1.284429e+00	1.282850e+00	1.302742e+00	1.301998e+00	1.295234e+00	1.296941e+00	1.300001e+00	1.300432e+00	1.555126e+00	1.540094e+00	1.296994e+00	1.298151e+00	1.289834e+00	1.301007e+00	1.299095e+00	1.296258e+00	1.298104e+00	1.300266e+00	1.299052e+00	1.271735e+00	1.283710e+00	1.273017e+00	1.283852e+00	1.348337e+00	1.298682e+00	1.299428e+00	1.292212e+00	1.192526e+00	1.296113e+00	1.296131e+00	1.299619e+00	1.302609e+00	1.138010e+00	1.116150e+00	1.253148e+00	1.286522e+00	1.294292e+00	1.264227e+00	1.283393e+00	1.311801e+00	1.307206e+00	1.303514e+00	1.272014e+00	1.304293e+00	1.297348e+00	1.280252e+00	1.306777e+00	1.308859e+00	1.248117e+00	1.234125e+00	1.287854e+00	1.302876e+00	1.152825e+00	1.167745e+00	1.209354e+00	1.349341e+00	1.302781e+00	1.278557e+00	1.277427e+00	1.271951e+00	1.296367e+00	1.446319e+00	1.289444e+00	1.373774e+00	1.302080e+00	1.304813e+00	1.305877e+00	1.127030e+00	1.201073e+00	1.168099e+00	1.306085e+00	1.089025e+00	1.326065e+00	1.315795e+00	1.449227e+00	1.425901e+00	1.453075e+00	1.298144e+00	1.300004e+00	1.265453e+00	1.282467e+00	1.313470e+00	1.305441e+00	1.301119e+00	1.279247e+00	1.288753e+00	1.259958e+00	1.195328e+00	1.302772e+00	1.215202e+00	1.290797e+00	1.223943e+00	1.262594e+00	1.272316e+00	1.373432e+00	1.269132e+00	1.283595e+00	1.316912e+00	1.318558e+00	1.326765e+00	1.271895e+00	1.294592e+00	1.301418e+00	1.289328e+00	1.221596e+00	1.196625e+00	1.197300e+00	1.182827e+00	1.308054e+00	1.317221e+00	1.279654e+00	1.232396e+00	1.342231e+00	1.351033e+00	1.366859e+00	1.384295e+00	1.396823e+00	1.424711e+00	1.311259e+00	1.313619e+00	1.359251e+00	1.305801e+00	1.309422e+00	1.299423e+00	1.310800e+00	1.296196e+00	1.191618e+00	1.248632e+00	1.162589e+00	1.158512e+00	1.363031e+00	1.311769e+00	7.156107e-01	6.471426e-01	6.828798e-01	1.270726e+00	1.266336e+00	1.120507e+00	9.367543e-01	1.321205e+00	1.321007e+00	1.291067e+00	1.313059e+00	1.308657e+00	1.128625e+00	1.230097e+00	1.384800e+00	1.346718e+00	1.431878e+00	1.405212e+00	1.430915e+00	1.282541e+00	1.300716e+00	1.323990e+00	1.287659e+00	1.271102e+00	1.228175e+00	1.169956e+00	1.182625e+00	1.154172e+00	1.299188e+00	9.971926e-01	1.289828e+00	1.329256e+00	1.333667e+00	1.344983e+00	1.266292e+00	1.292247e+00	1.289829e+00	1.300496e+00	1.321600e+00	1.375172e+00	1.361027e+00	1.272645e+00	1.289261e+00	1.046920e+00	1.072721e+00	1.226305e+00	1.249500e+00	1.312247e+00	1.333352e+00	1.330671e+00	1.158134e+00	1.239339e+00	1.382708e+00	1.126287e+00	1.082349e+00	1.333258e+00	1.272278e+00	1.424418e+00	1.375206e+00	1.275780e+00	1.295165e+00	1.262207e+00	1.338358e+00	1.324221e+00	1.268596e+00	1.362641e+00	1.257803e+00	1.268910e+00	1.260087e+00	1.182031e+00	1.107650e+00	1.110557e+00	8.813274e-01	8.344284e-01	1.329417e+00	1.400573e+00	1.379828e+00	1.226738e+00	1.135725e+00	1.065608e+00	1.187894e+00	1.367170e+00	1.387482e+00	1.198080e+00	1.300960e+00	1.288060e+00	1.268108e+00	9.803863e-01	9.739264e-01	6.027249e-01	1.327765e+00	1.394933e+00	1.401666e+00	1.337379e+00	1.309936e+00	1.256317e+00	1.317587e+00	1.259904e+00	1.350600e+00	7.807357e-01	6.957165e-01	7.788835e-01	1.259036e+00	1.353235e+00	1.349854e+00	1.346305e+00	1.144408e+00	1.128800e+00	9.103389e-01	1.336508e+00	1.311214e+00	1.138891e+00	1.261847e+00	1.418178e+00	1.128272e+00	1.190910e+00	1.247388e+00	1.247309e+00	1.084653e+00	1.205275e+00	1.179242e+00	1.198620e+00	1.305816e+00	1.273868e+00	8.779331e-01	1.236881e+00	1.299546e+00	1.086666e+00	1.215260e+00	1.217694e+00	1.282610e+00	1.264603e+00	1.341049e+00	1.341549e+00	1.354599e+00	1.339607e+00	1.005530e+00	1.094826e+00	7.531274e-01	7.856627e-01	1.333780e+00	1.321098e+00	1.290617e+00	1.161830e+00	1.191025e+00	1.205803e+00	1.215109e+00	1.282659e+00	1.255239e+00	1.175751e+00	1.150201e+00	1.157296e+00	1.295080e+00	1.290511e+00	1.120501e+00	1.288369e+00	1.278838e+00	1.365152e+00	1.186624e+00	1.379022e+00	1.395600e+00	1.325398e+00	1.232524e+00	1.239124e+00	1.273146e+00	1.265875e+00	1.186412e+00	1.103345e+00	1.184931e+00	1.617857e+00	1.562226e+00	1.416714e+00	1.202952e+00	1.068924e+00	1.225480e+00	1.356408e+00	1.106135e+00	9.969480e-01	1.074734e+00	1.243741e+00	1.304363e+00	1.046918e+00	9.765938e-01	1.266474e+00	1.275380e+00	1.286702e+00	1.336965e+00	1.336120e+00	1.323441e+00	1.070869e+00	1.229660e+00	1.219074e+00	1.397747e+00	1.358518e+00	1.362860e+00	1.160164e+00	1.017062e+00	9.085323e-01	1.273090e+00	1.282324e+00	1.223620e+00	5.653502e-01	8.058599e-01	7.840178e-01	1.053823e+00	1.237179e+00	1.132314e+00	9.203835e-01	1.165046e+00	1.181266e+00	1.143558e+00	1.171535e+00	1.185352e+00	1.199071e+00	1.297882e+00	1.287085e+00	1.292985e+00	1.288189e+00	1.224874e+00	1.334179e+00	1.181401e+00	1.140066e+00	1.298737e+00	1.315114e+00	9.492984e-01	1.058813e+00	8.619780e-01	1.006410e+00	1.082140e+00	1.322025e+00	1.311282e+00	1.251269e+00	1.367280e+00	1.364806e+00	1.369390e+00	1.364318e+00	1.370339e+00	1.320498e+00	1.334804e+00	1.292490e+00	1.294397e+00	1.251404e+00	1.267037e+00	1.252834e+00	1.229860e+00	1.224486e+00	1.154622e+00	1.163319e+00	1.321514e+00	1.226999e+00	1.352314e+00	1.324572e+00	1.346900e+00	1.265929e+00	1.191318e+00	1.293681e+00	1.293069e+00	1.117146e+00	1.151601e+00	1.371670e+00	9.527377e-01	1.602503e+00	1.626042e+00	1.365640e+00	1.359741e+00	1.527360e+00	1.538737e+00	1.415314e+00	1.457436e+00	1.446396e+00	1.461738e+00	1.355534e+00	1.280655e+00	1.289240e+00	1.236449e+00	1.215838e+00	1.294946e+00	1.325362e+00	1.358769e+00	1.383845e+00	1.333259e+00	1.289240e+00	1.292136e+00	1.261868e+00	1.221140e+00	1.209213e+00	1.234137e+00	1.274836e+00	8.754429e-01	7.550027e-01	1.113021e+00	1.249882e+00	1.219157e+00	1.102886e+00	8.620145e-01	9.268237e-01	5.607937e-01	8.024349e-01	7.683895e-01	1.259833e+00	1.262221e+00	1.198552e+00	1.192367e+00	1.211190e+00	8.313231e-01	9.001715e-01	8.727594e-01	9.251687e-01	9.880441e-01	1.052845e+00	1.007042e+00	1.243638e+00	8.777454e-01	1.051731e+00	9.862998e-01	1.025251e+00	1.235170e+00	1.233635e+00	1.041458e+00	8.894526e-01	1.413259e+00	1.433851e+00	1.204170e+00	1.346338e+00	1.171151e+00	1.225750e+00	8.766265e-01	1.372442e+00	1.363176e+00	1.310634e+00	1.325310e+00	1.256556e+00	6.011010e-01	6.534979e-01	1.261848e+00	1.275729e+00	1.279963e+00	1.194982e+00	1.227067e+00	1.276994e+00	1.271210e+00	1.196941e+00	1.184517e+00	1.169244e+00	1.343914e+00	1.359414e+00	1.343172e+00	1.339140e+00	1.373962e+00	1.244808e+00	1.239212e+00	1.269764e+00	1.232550e+00	1.247002e+00	1.073906e+00	1.282346e+00	1.284973e+00	1.301543e+00	1.483949e+00	1.455061e+00	1.562115e+00	1.582567e+00	1.208044e+00	9.683072e-01	8.383902e-01	7.588221e-01	8.644059e-01	8.121142e-01	1.301964