# vtk DataFile Version 3.0
vtk output
ASCII
DATASET UNSTRUCTURED_GRID
POINTS 198 double
0.000000e+00	0.000000e+00	0.0	3.445111e-03	3.623701e-03	0.0	7.160986e-03	7.216545e-03	0.0	1.158992e-02	1.026841e-02	0.0	1.626848e-02	1.328497e-02	0.0	2.141181e-02	1.591514e-02	0.0	2.678814e-02	1.853049e-02	0.0	3.254363e-02	2.081989e-02	0.0	3.853739e-02	2.308270e-02	0.0	4.485468e-02	2.509350e-02	0.0	5.141993e-02	2.705520e-02	0.0	5.826027e-02	2.888957e-02	0.0	6.535028e-02	3.068431e-02	0.0	7.268566e-02	3.247074e-02	0.0	8.028006e-02	3.419950e-02	0.0	8.813122e-02	3.588171e-02	0.0	9.627287e-02	3.736381e-02	0.0	1.046981e-01	3.862350e-02	0.0	1.134043e-01	3.969133e-02	0.0	1.223892e-01	4.047048e-02	0.0	1.316425e-01	4.108102e-02	0.0	1.411547e-01	4.155901e-02	0.0	1.509278e-01	4.186341e-02	0.0	1.609527e-01	4.216762e-02	0.0	1.712318e-01	4.232284e-02	0.0	1.817601e-01	4.248182e-02	0.0	1.925356e-01	4.262311e-02	0.0	2.035554e-01	4.274864e-02	0.0	2.148158e-01	4.287691e-02	0.0	2.263102e-01	4.314546e-02	0.0	2.380361e-01	4.342262e-02	0.0	2.499806e-01	4.388491e-02	0.0	2.621346e-01	4.460160e-02	0.0	2.745011e-01	4.533082e-02	0.0	2.870183e-01	4.669436e-02	0.0	2.997237e-01	4.816594e-02	0.0	3.125748e-01	4.993543e-02	0.0	3.255197e-01	5.228664e-02	0.0	3.386299e-01	5.466789e-02	0.0	3.518540e-01	5.728928e-02	0.0	3.652092e-01	6.000040e-02	0.0	3.787146e-01	6.263356e-02	0.0	3.924066e-01	6.492340e-02	0.0	4.062051e-01	6.723105e-02	0.0	4.202009e-01	6.870508e-02	0.0	4.343225e-01	6.981545e-02	0.0	4.485182e-01	7.062831e-02	0.0	4.627968e-01	7.025531e-02	0.0	4.771126e-01	6.988133e-02	0.0	4.913879e-01	6.860541e-02	0.0	5.056462e-01	6.698069e-02	0.0	5.198640e-01	6.513498e-02	0.0	5.339459e-01	6.253027e-02	0.0	5.479911e-01	5.993234e-02	0.0	5.618981e-01	5.692352e-02	0.0	5.757032e-01	5.374991e-02	0.0	5.894348e-01	5.061699e-02	0.0	6.031034e-01	4.763514e-02	0.0	6.166666e-01	4.467629e-02	0.0	6.302179e-01	4.233518e-02	0.0	6.437108e-01	4.042422e-02	0.0	6.570668e-01	3.863489e-02	0.0	6.703915e-01	3.857828e-02	0.0	6.835480e-01	3.852238e-02	0.0	6.964892e-01	3.921060e-02	0.0	7.092108e-01	4.053547e-02	0.0	7.217362e-01	4.184115e-02	0.0	7.340331e-01	4.334135e-02	0.0	7.461186e-01	4.481576e-02	0.0	7.580283e-01	4.571086e-02	0.0	7.697515e-01	4.608438e-02	0.0	7.812292e-01	4.617390e-02	0.0	7.923909e-01	4.468046e-02	0.0	8.033141e-01	4.321892e-02	0.0	8.137824e-01	4.069758e-02	0.0	8.239792e-01	3.807173e-02	0.0	8.338691e-01	3.527288e-02	0.0	8.434731e-01	3.238246e-02	0.0	8.528611e-01	2.965367e-02	0.0	8.620772e-01	2.724529e-02	0.0	8.710494e-01	2.490066e-02	0.0	8.798568e-01	2.295086e-02	0.0	8.884346e-01	2.111779e-02	0.0	8.967842e-01	1.941355e-02	0.0	9.049206e-01	1.790303e-02	0.0	9.128165e-01	1.643718e-02	0.0	9.204831e-01	1.506329e-02	0.0	9.279162e-01	1.374148e-02	0.0	9.351153e-01	1.244931e-02	0.0	9.420822e-01	1.117775e-02	0.0	9.488245e-01	9.946683e-03	0.0	9.553405e-01	8.724485e-03	0.0	9.616403e-01	7.542835e-03	0.0	9.677240e-01	6.378340e-03	0.0	9.735996e-01	5.249528e-03	0.0	9.792688e-01	4.139707e-03	0.0	9.847388e-01	3.061103e-03	0.0	9.900131e-01	2.007050e-03	0.0	9.950964e-01	9.760145e-04	0.0	1.000000e+00	0.000000e+00	0.0	9.950042e-01	2.026155e-04	0.0	9.898199e-01	4.051225e-04	0.0	9.844403e-01	5.572675e-04	0.0	9.788612e-01	6.632012e-04	0.0	9.730783e-01	7.437650e-04	0.0	9.670865e-01	7.640944e-04	0.0	9.608817e-01	7.609972e-04	0.0	9.544594e-01	6.914689e-04	0.0	9.478151e-01	6.052874e-04	0.0	9.409458e-01	4.235079e-04	0.0	9.338458e-01	2.356218e-04	0.0	9.265149e-01	-6.408141e-05	0.0	9.189464e-01	-3.967345e-04	0.0	9.111420e-01	-8.370874e-04	0.0	9.031024e-01	-1.449075e-03	0.0	8.948156e-01	-2.079879e-03	0.0	8.863234e-01	-3.154714e-03	0.0	8.775862e-01	-4.311929e-03	0.0	8.686499e-01	-5.807408e-03	0.0	8.595337e-01	-7.759088e-03	0.0	8.501728e-01	-9.785700e-03	0.0	8.407629e-01	-1.264491e-02	0.0	8.311084e-01	-1.557845e-02	0.0	8.212921e-01	-1.883884e-02	0.0	8.112728e-01	-2.229388e-02	0.0	8.010003e-01	-2.578382e-02	0.0	7.904643e-01	-2.926883e-02	0.0	7.796959e-01	-3.283068e-02	0.0	7.685313e-01	-3.591397e-02	0.0	7.571374e-01	-3.905304e-02	0.0	7.454218e-01	-4.183872e-02	0.0	7.334034e-01	-4.432206e-02	0.0	7.211665e-01	-4.681338e-02	0.0	7.085783e-01	-4.848126e-02	0.0	6.957910e-01	-5.017551e-02	0.0	6.827630e-01	-5.133828e-02	0.0	6.695076e-01	-5.200752e-02	0.0	6.560807e-01	-5.266890e-02	0.0	6.424790e-01	-5.242778e-02	0.0	6.287287e-01	-5.218402e-02	0.0	6.148456e-01	-5.181111e-02	0.0	6.008421e-01	-5.132075e-02	0.0	5.867282e-01	-5.084979e-02	0.0	5.725096e-01	-5.083982e-02	0.0	5.582088e-01	-5.082979e-02	0.0	5.438636e-01	-5.144912e-02	0.0	5.294824e-01	-5.252719e-02	0.0	5.150754e-01	-5.371874e-02	0.0	5.007412e-01	-5.578522e-02	0.0	4.863994e-01	-5.785279e-02	0.0	4.721350e-01	-6.033517e-02	0.0	4.579339e-01	-6.305676e-02	0.0	4.437794e-01	-6.581664e-02	0.0	4.297384e-01	-6.886727e-02	0.0	4.157637e-01	-7.190351e-02	0.0	4.018451e-01	-7.480737e-02	0.0	3.880059e-01	-7.762022e-02	0.0	3.742576e-01	-8.030879e-02	0.0	3.604830e-01	-8.208525e-02	0.0	3.468436e-01	-8.384428e-02	0.0	3.332838e-01	-8.442999e-02	0.0	3.198409e-01	-8.427996e-02	0.0	3.065995e-01	-8.382896e-02	0.0	2.937367e-01	-8.139770e-02	0.0	2.810621e-01	-7.900203e-02	0.0	2.687554e-01	-7.593181e-02	0.0	2.567651e-01	-7.243704e-02	0.0	2.449831e-01	-6.900294e-02	0.0	2.333993e-01	-6.568899e-02	0.0	2.220366e-01	-6.243880e-02	0.0	2.107931e-01	-5.972844e-02	0.0	1.996074e-01	-5.785093e-02	0.0	1.886630e-01	-5.601392e-02	0.0	1.778509e-01	-5.526458e-02	0.0	1.672647e-01	-5.475760e-02	0.0	1.569284e-01	-5.435608e-02	0.0	1.468396e-01	-5.417875e-02	0.0	1.370064e-01	-5.400591e-02	0.0	1.274645e-01	-5.322704e-02	0.0	1.181864e-01	-5.231596e-02	0.0	1.092374e-01	-5.100383e-02	0.0	1.007015e-01	-4.880925e-02	0.0	9.240999e-02	-4.667752e-02	0.0	8.459411e-02	-4.387600e-02	0.0	7.706209e-02	-4.099877e-02	0.0	6.981184e-02	-3.808113e-02	0.0	6.288887e-02	-3.500458e-02	0.0	5.618387e-02	-3.202490e-02	0.0	4.965451e-02	-2.922989e-02	0.0	4.333591e-02	-2.652903e-02	0.0	3.717288e-02	-2.404528e-02	0.0	3.120654e-02	-2.166756e-02	0.0	2.547103e-02	-1.930011e-02	0.0	1.998950e-02	-1.688829e-02	0.0	1.480938e-02	-1.431616e-02	0.0	1.007169e-02	-1.138146e-02	0.0	5.765146e-03	-8.187855e-03	0.0	2.073814e-03	-4.549648e-03	0.0	
CELLS 198	594
2	100	101	2	101	102	2	102	103	2	103	104	2	104	105	2	105	106	2	106	107	2	107	108	2	108	109	2	109	110	2	110	111	2	111	112	2	112	113	2	113	114	2	114	115	2	115	116	2	116	117	2	117	118	2	118	119	2	119	120	2	120	121	2	121	122	2	122	123	2	123	124	2	124	125	2	125	126	2	126	127	2	127	128	2	128	129	2	129	130	2	130	131	2	131	132	2	132	133	2	133	134	2	134	135	2	135	136	2	136	137	2	137	138	2	138	139	2	139	140	2	140	141	2	141	142	2	142	143	2	143	144	2	144	145	2	145	146	2	146	147	2	147	148	2	148	149	2	149	150	2	150	151	2	151	152	2	152	153	2	153	154	2	154	155	2	155	156	2	156	157	2	157	158	2	158	159	2	159	160	2	160	161	2	161	162	2	162	163	2	163	164	2	164	165	2	165	166	2	166	167	2	36	37	2	37	38	2	38	39	2	39	40	2	40	41	2	41	42	2	42	43	2	43	44	2	44	45	2	45	46	2	46	47	2	47	48	2	48	49	2	49	50	2	50	51	2	51	52	2	52	53	2	53	54	2	54	55	2	55	56	2	56	57	2	57	58	2	58	59	2	59	60	2	60	61	2	61	62	2	62	63	2	63	64	2	64	65	2	65	66	2	66	67	2	67	68	2	68	69	2	69	70	2	70	71	2	71	72	2	72	73	2	73	74	2	74	75	2	75	76	2	76	77	2	77	78	2	78	79	2	79	80	2	80	81	2	81	82	2	82	83	2	83	84	2	84	85	2	85	86	2	86	87	2	87	88	2	88	89	2	89	90	2	90	91	2	91	92	2	92	93	2	93	94	2	94	95	2	95	96	2	96	97	2	97	98	2	98	99	2	99	100	2	0	1	2	1	2	2	2	3	2	3	4	2	4	5	2	5	6	2	6	7	2	7	8	2	8	9	2	9	10	2	10	11	2	11	12	2	12	13	2	13	14	2	14	15	2	15	16	2	16	17	2	17	18	2	18	19	2	19	20	2	20	21	2	21	22	2	22	23	2	23	24	2	24	25	2	25	26	2	26	27	2	27	28	2	28	29	2	29	30	2	30	31	2	31	32	2	32	33	2	33	34	2	34	35	2	35	36	2	167	168	2	168	169	2	169	170	2	170	171	2	171	172	2	172	173	2	173	174	2	174	175	2	175	176	2	176	177	2	177	178	2	178	179	2	179	180	2	180	181	2	181	182	2	182	183	2	183	184	2	184	185	2	185	186	2	186	187	2	187	188	2	188	189	2	189	190	2	190	191	2	191	192	2	192	193	2	193	194	2	194	195	2	195	196	2	196	197	2	197	0	
CELL_TYPES 198
3	3	3	3	3	3	3	3	3	3	3	3	3	3	3	3	3	3	3	3	3	3	3	3	3	3	3	3	3	3	3	3	3	3	3	3	3	3	3	3	3	3	3	3	3	3	3	3	3	3	3	3	3	3	3	3	3	3	3	3	3	3	3	3	3	3	3	3	3	3	3	3	3	3	3	3	3	3	3	3	3	3	3	3	3	3	3	3	3	3	3	3	3	3	3	3	3	3	3	3	3	3	3	3	3	3	3	3	3	3	3	3	3	3	3	3	3	3	3	3	3	3	3	3	3	3	3	3	3	3	3	3	3	3	3	3	3	3	3	3	3	3	3	3	3	3	3	3	3	3	3	3	3	3	3	3	3	3	3	3	3	3	3	3	3	3	3	3	3	3	3	3	3	3	3	3	3	3	3	3	3	3	3	3	3	3	3	3	3	3	3	3	3	3	3	3	3	3	
POINT_DATA 198

SCALARS Density double 1
LOOKUP_TABLE default
1.524547e+00	1.122139e+00	1.155263e+00	1.120620e+00	1.084845e+00	1.045791e+00	1.015197e+00	9.847034e-01	9.645800e-01	9.489454e-01	9.518589e-01	9.607220e-01	9.773196e-01	9.799619e-01	9.649439e-01	9.275923e-01	8.782466e-01	8.375137e-01	7.989007e-01	7.659074e-01	7.459600e-01	7.245868e-01	7.170696e-01	7.257746e-01	8.325455e-01	1.084591e+00	1.204153e+00	1.213026e+00	1.221642e+00	1.233366e+00	1.244022e+00	1.258535e+00	1.261231e+00	1.272758e+00	1.274137e+00	1.263072e+00	1.263492e+00	1.243776e+00	1.213264e+00	1.186426e+00	1.146394e+00	1.093993e+00	1.050013e+00	9.852921e-01	9.157919e-01	8.819888e-01	8.059856e-01	7.488123e-01	7.082333e-01	6.554673e-01	6.327174e-01	5.938341e-01	5.656689e-01	5.456463e-01	5.819237e-01	8.439453e-01	1.158187e+00	1.182892e+00	1.202201e+00	1.222362e+00	1.225114e+00	1.242895e+00	1.240613e+00	1.223687e+00	1.221407e+00	1.195879e+00	1.166025e+00	1.136760e+00	1.087373e+00	1.035862e+00	1.003017e+00	9.522627e-01	9.521637e-01	1.005928e+00	1.046467e+00	1.104430e+00	1.135841e+00	1.166778e+00	1.193002e+00	1.204298e+00	1.215929e+00	1.224244e+00	1.224915e+00	1.230565e+00	1.232488e+00	1.233667e+00	1.236461e+00	1.238559e+00	1.240979e+00	1.244453e+00	1.247766e+00	1.251308e+00	1.255598e+00	1.259283e+00	1.263599e+00	1.268358e+00	1.273891e+00	1.280513e+00	1.286029e+00	1.276711e+00	1.354522e+00	1.339093e+00	1.344824e+00	1.344921e+00	1.347851e+00	1.349855e+00	1.351510e+00	1.354079e+00	1.355601e+00	1.357719e+00	1.360007e+00	1.361771e+00	1.366138e+00	1.365888e+00	1.371497e+00	1.373724e+00	1.371973e+00	1.375950e+00	1.368825e+00	1.371684e+00	1.365938e+00	1.350940e+00	1.342200e+00	1.322839e+00	1.302085e+00	1.282591e+00	1.251610e+00	1.227323e+00	1.205531e+00	1.176033e+00	1.162681e+00	1.128666e+00	1.113635e+00	1.106098e+00	1.093046e+00	1.108358e+00	1.108784e+00	1.128466e+00	1.167905e+00	1.189222e+00	1.214291e+00	1.242762e+00	1.258062e+00	1.274256e+00	1.289925e+00	1.286600e+00	1.294269e+00	1.290392e+00	1.280497e+00	1.276021e+00	1.259545e+00	1.248416e+00	1.234350e+00	1.221118e+00	1.159815e+00	8.426393e-01	6.425228e-01	6.125643e-01	6.361013e-01	6.879649e-01	7.638391e-01	8.026314e-01	9.213830e-01	1.043473e+00	1.100164e+00	1.185580e+00	1.253719e+00	1.296346e+00	1.342019e+00	1.386463e+00	1.393580e+00	1.407924e+00	1.414148e+00	1.385529e+00	1.369597e+00	1.346197e+00	1.291782e+00	1.252822e+00	1.221510e+00	1.172131e+00	1.193204e+00	1.217852e+00	1.247821e+00	1.309485e+00	1.340014e+00	1.380349e+00	1.420449e+00	1.445372e+00	1.467762e+00	1.484266e+00	1.493614e+00	1.505446e+00	1.517607e+00	1.532197e+00	1.553969e+00	1.597501e+00	1.604600e+00	1.710144e+00	
VECTORS Momentum double
3.927355e+01	2.144082e+02	0.0	1.759668e+02	1.718378e+02	0.0	2.100638e+02	1.684265e+02	0.0	2.358105e+02	1.563159e+02	0.0	2.569117e+02	1.468832e+02	0.0	2.701848e+02	1.344871e+02	0.0	2.810463e+02	1.236463e+02	0.0	2.883830e+02	1.115877e+02	0.0	2.935628e+02	1.017807e+02	0.0	2.970320e+02	9.139926e+01	0.0	3.007111e+02	8.495245e+01	0.0	3.021620e+02	7.860664e+01	0.0	3.036753e+02	7.548187e+01	0.0	3.055262e+02	7.222803e+01	0.0	3.078849e+02	6.813566e+01	0.0	3.085328e+02	6.123844e+01	0.0	3.067416e+02	5.082312e+01	0.0	3.049734e+02	4.139549e+01	0.0	3.020015e+02	3.152488e+01	0.0	2.979072e+02	2.267632e+01	0.0	2.956999e+02	1.713548e+01	0.0	2.918634e+02	1.155950e+01	0.0	2.931778e+02	9.053831e+00	0.0	2.890143e+02	6.076322e+00	0.0	3.005599e+02	2.622187e+00	0.0	3.024456e+02	4.754084e+00	0.0	2.999631e+02	4.242568e+00	0.0	2.967408e+02	3.633931e+00	0.0	2.941371e+02	5.232626e+00	0.0	2.907409e+02	6.974413e+00	0.0	2.859925e+02	8.853811e+00	0.0	2.838960e+02	1.394179e+01	0.0	2.800747e+02	1.637315e+01	0.0	2.776535e+02	2.327679e+01	0.0	2.784283e+02	3.131949e+01	0.0	2.781291e+02	3.509858e+01	0.0	2.795242e+02	4.473738e+01	0.0	2.840857e+02	5.197924e+01	0.0	2.887027e+02	5.497508e+01	0.0	2.944245e+02	5.903683e+01	0.0	3.015106e+02	6.021774e+01	0.0	3.058994e+02	5.549204e+01	0.0	3.106531e+02	5.232268e+01	0.0	3.128660e+02	4.309013e+01	0.0	3.099545e+02	2.810883e+01	0.0	3.113666e+02	2.153274e+01	0.0	3.025316e+02	5.086172e+00	0.0	2.939343e+02	-7.839128e+00	0.0	2.876972e+02	-1.664367e+01	0.0	2.747957e+02	-2.805081e+01	0.0	2.700212e+02	-3.300354e+01	0.0	2.585740e+02	-4.064161e+01	0.0	2.517150e+02	-4.572108e+01	0.0	2.423459e+02	-4.816557e+01	0.0	2.421487e+02	-5.262144e+01	0.0	2.382857e+02	-5.650920e+01	0.0	2.252622e+02	-4.771186e+01	0.0	2.114708e+02	-4.427780e+01	0.0	2.012825e+02	-3.959559e+01	0.0	1.972231e+02	-3.087212e+01	0.0	1.893488e+02	-2.622578e+01	0.0	1.862221e+02	-1.278172e+01	0.0	1.913177e+02	-6.363827e-01	0.0	1.953728e+02	4.560260e+00	0.0	2.017011e+02	1.607863e+01	0.0	2.118324e+02	2.234634e+01	0.0	2.224024e+02	2.513924e+01	0.0	2.355554e+02	2.867972e+01	0.0	2.500140e+02	2.477699e+01	0.0	2.591337e+02	1.379139e+01	0.0	2.694236e+02	5.852752e+00	0.0	2.704801e+02	-1.587111e+01	0.0	2.636041e+02	-3.555912e+01	0.0	2.593397e+02	-4.805611e+01	0.0	2.445084e+02	-6.086923e+01	0.0	2.340462e+02	-6.295885e+01	0.0	2.216133e+02	-6.453770e+01	0.0	2.094437e+02	-6.194453e+01	0.0	2.024728e+02	-5.584616e+01	0.0	1.968553e+02	-5.146963e+01	0.0	1.924786e+02	-4.648100e+01	0.0	1.906881e+02	-4.135962e+01	0.0	1.883062e+02	-3.927724e+01	0.0	1.863754e+02	-3.630534e+01	0.0	1.855773e+02	-3.443120e+01	0.0	1.842239e+02	-3.361634e+01	0.0	1.827302e+02	-3.261835e+01	0.0	1.815292e+02	-3.239905e+01	0.0	1.798768e+02	-3.255942e+01	0.0	1.778196e+02	-3.246109e+01	0.0	1.754902e+02	-3.246554e+01	0.0	1.729369e+02	-3.244883e+01	0.0	1.702941e+02	-3.223429e+01	0.0	1.671252e+02	-3.203673e+01	0.0	1.637162e+02	-3.173365e+01	0.0	1.601150e+02	-3.141387e+01	0.0	1.558456e+02	-3.083251e+01	0.0	1.495735e+02	-3.003669e+01	0.0	1.401641e+02	-2.852692e+01	0.0	1.398470e+02	-3.741524e+00	0.0	2.050932e+02	-9.767046e+00	0.0	1.999760e+02	-6.511859e+00	0.0	2.006516e+02	-4.892137e+00	0.0	1.983966e+02	-3.175184e+00	0.0	1.974160e+02	-1.689780e+00	0.0	1.962215e+02	-2.756827e-01	0.0	1.950611e+02	1.130138e+00	0.0	1.938451e+02	2.273057e+00	0.0	1.926463e+02	3.825065e+00	0.0	1.912212e+02	5.066919e+00	0.0	1.895241e+02	6.393606e+00	0.0	1.880079e+02	7.980086e+00	0.0	1.858789e+02	9.306287e+00	0.0	1.837421e+02	1.228546e+01	0.0	1.818149e+02	1.379861e+01	0.0	1.792202e+02	1.820339e+01	0.0	1.779593e+02	2.309023e+01	0.0	1.771071e+02	2.663431e+01	0.0	1.764347e+02	3.398813e+01	0.0	1.783644e+02	3.840881e+01	0.0	1.785863e+02	4.647914e+01	0.0	1.837119e+02	5.590698e+01	0.0	1.921009e+02	6.093256e+01	0.0	1.990829e+02	6.728776e+01	0.0	2.096889e+02	7.164364e+01	0.0	2.199244e+02	7.369531e+01	0.0	2.301749e+02	7.617133e+01	0.0	2.427981e+02	7.340544e+01	0.0	2.520898e+02	6.939512e+01	0.0	2.597139e+02	6.648091e+01	0.0	2.676359e+02	5.909707e+01	0.0	2.716084e+02	5.572763e+01	0.0	2.791691e+02	4.661236e+01	0.0	2.818983e+02	3.753010e+01	0.0	2.821528e+02	3.141263e+01	0.0	2.843210e+02	1.968617e+01	0.0	2.806159e+02	1.428309e+01	0.0	2.793835e+02	4.206918e+00	0.0	2.736711e+02	-5.034114e+00	0.0	2.639602e+02	-5.797792e+00	0.0	2.571274e+02	-7.946931e+00	0.0	2.484990e+02	-8.420790e+00	0.0	2.400994e+02	-3.923414e+00	0.0	2.337115e+02	-2.278562e-01	0.0	2.278999e+02	4.402642e+00	0.0	2.238791e+02	1.311097e+01	0.0	2.235003e+02	1.744192e+01	0.0	2.217359e+02	2.514252e+01	0.0	2.244097e+02	3.236817e+01	0.0	2.276505e+02	3.612857e+01	0.0	2.294422e+02	4.204841e+01	0.0	2.349636e+02	4.529417e+01	0.0	2.387473e+02	4.913807e+01	0.0	2.430028e+02	5.215066e+01	0.0	2.566601e+02	5.194708e+01	0.0	2.627710e+02	5.568830e+01	0.0	2.603655e+02	5.086926e+01	0.0	2.674312e+02	4.288892e+01	0.0	2.760284e+02	3.554918e+01	0.0	2.876697e+02	2.317802e+01	0.0	3.059256e+02	3.875365e+00	0.0	3.090989e+02	-7.225005e+00	0.0	3.265224e+02	-3.873905e+01	0.0	3.291349e+02	-6.363885e+01	0.0	3.238576e+02	-7.107858e+01	0.0	3.181187e+02	-8.668857e+01	0.0	3.063197e+02	-8.952161e+01	0.0	2.961415e+02	-8.540536e+01	0.0	2.871373e+02	-8.199692e+01	0.0	2.774218e+02	-7.285866e+01	0.0	2.724739e+02	-5.547633e+01	0.0	2.723144e+02	-4.572970e+01	0.0	2.721503e+02	-3.221188e+01	0.0	2.774004e+02	-1.588596e+01	0.0	2.875011e+02	-1.253627e+01	0.0	2.944878e+02	-8.591651e+00	0.0	3.032141e+02	-5.301324e+00	0.0	3.131748e+02	-1.554111e+01	0.0	3.182995e+02	-2.849693e+01	0.0	3.188002e+02	-3.830978e+01	0.0	3.219970e+02	-6.508031e+01	0.0	3.126215e+02	-8.043315e+01	0.0	3.026810e+02	-9.259224e+01	0.0	2.897637e+02	-1.075635e+02	0.0	2.733168e+02	-1.069723e+02	0.0	2.608269e+02	-1.106005e+02	0.0	2.464215e+02	-1.098654e+02	0.0	2.349112e+02	-1.025324e+02	0.0	2.261390e+02	-9.685971e+01	0.0	2.181274e+02	-9.049318e+01	0.0	2.112246e+02	-8.440183e+01	0.0	2.036359e+02	-8.262851e+01	0.0	1.928741e+02	-8.216386e+01	0.0	1.771243e+02	-8.260723e+01	0.0	1.512581e+02	-8.327539e+01	0.0	1.088708e+02	-7.291822e+01	0.0	5.414027e+01	-4.303527e+01	0.0	-3.236779e+01	3.680144e+01	0.0	
SCALARS Energy double 1
LOOKUP_TABLE default
3.350668e+05	2.510494e+05	2.594959e+05	2.532224e+05	2.467933e+05	2.392338e+05	2.334230e+05	2.274154e+05	2.234774e+05	2.203289e+05	2.210757e+05	2.228383e+05	2.262551e+05	2.268838e+05	2.239798e+05	2.163966e+05	2.061825e+05	1.977811e+05	1.897371e+05	1.827447e+05	1.785710e+05	1.739556e+05	1.726446e+05	1.738408e+05	1.960486e+05	2.472569e+05	2.718107e+05	2.734297e+05	2.750468e+05	2.772654e+05	2.791814e+05	2.820978e+05	2.824271e+05	2.847253e+05	2.851124e+05	2.827995e+05	2.830626e+05	2.793063e+05	2.732796e+05	2.681470e+05	2.603886e+05	2.498657e+05	2.412092e+05	2.281329e+05	2.137093e+05	2.070470e+05	1.910138e+05	1.788826e+05	1.703394e+05	1.587745e+05	1.539198e+05	1.452612e+05	1.392008e+05	1.343134e+05	1.412709e+05	1.931706e+05	2.577053e+05	2.621606e+05	2.657112e+05	2.697399e+05	2.699403e+05	2.735401e+05	2.732553e+05	2.698286e+05	2.696641e+05	2.647595e+05	2.590028e+05	2.535952e+05	2.441015e+05	2.339251e+05	2.278588e+05	2.175217e+05	2.171023e+05	2.280261e+05	2.356050e+05	2.471060e+05	2.530203e+05	2.588694e+05	2.639980e+05	2.660764e+05	2.682941e+05	2.699335e+05	2.699517e+05	2.710471e+05	2.714076e+05	2.715951e+05	2.721208e+05	2.725169e+05	2.729667e+05	2.736241e+05	2.742383e+05	2.748944e+05	2.757079e+05	2.763742e+05	2.771694e+05	2.780560e+05	2.790876e+05	2.802899e+05	2.811623e+05	2.790586e+05	2.981892e+05	2.946677e+05	2.959192e+05	2.958429e+05	2.964272e+05	2.968058e+05	2.971118e+05	2.976118e+05	2.978896e+05	2.982864e+05	2.987098e+05	2.990297e+05	2.998840e+05	2.997546e+05	3.008871e+05	3.012818e+05	3.008804e+05	3.017202e+05	3.002140e+05	3.009316e+05	2.997802e+05	2.968655e+05	2.953938e+05	2.916413e+05	2.877585e+05	2.841361e+05	2.781348e+05	2.736473e+05	2.695340e+05	2.637660e+05	2.613702e+05	2.544940e+05	2.517802e+05	2.503147e+05	2.475727e+05	2.508288e+05	2.506240e+05	2.546037e+05	2.624373e+05	2.662697e+05	2.711180e+05	2.766131e+05	2.793724e+05	2.824599e+05	2.854886e+05	2.845977e+05	2.862236e+05	2.853488e+05	2.834250e+05	2.826672e+05	2.793174e+05	2.772848e+05	2.745586e+05	2.720392e+05	2.599649e+05	1.949675e+05	1.549858e+05	1.499494e+05	1.553406e+05	1.664883e+05	1.831535e+05	1.910739e+05	2.165752e+05	2.416739e+05	2.528579e+05	2.702057e+05	2.834877e+05	2.915952e+05	3.005238e+05	3.091466e+05	3.101391e+05	3.130603e+05	3.142604e+05	3.084272e+05	3.056501e+05	3.011484e+05	2.903075e+05	2.828995e+05	2.768418e+05	2.667552e+05	2.716798e+05	2.763277e+05	2.820739e+05	2.943982e+05	2.997805e+05	3.076505e+05	3.153610e+05	3.199380e+05	3.241908e+05	3.272468e+05	3.288553e+05	3.310554e+05	3.332469e+05	3.358350e+05	3.397359e+05	3.479709e+05	3.484010e+05	3.710640e+05	
SCALARS Pressure double 1
LOOKUP_TABLE default
1.277936e+05	8.963810e+04	9.124807e+04	8.700378e+04	8.257156e+04	7.827384e+04	7.479636e+04	7.154578e+04	6.937427e+04	6.777596e+04	6.791376e+04	6.884205e+04	7.046433e+04	7.063782e+04	6.898231e+04	6.522540e+04	6.045789e+04	5.649253e+04	5.281343e+04	4.978884e+04	4.790646e+04	4.603284e+04	4.506152e+04	4.650820e+04	5.671659e+04	8.203082e+04	9.377669e+04	9.485143e+04	9.585025e+04	9.719102e+04	9.851039e+04	1.000002e+05	1.004894e+05	1.016909e+05	1.017224e+05	1.006759e+05	1.005403e+05	9.831071e+04	9.507395e+04	9.205834e+04	8.766289e+04	8.227639e+04	7.758049e+04	7.100700e+04	6.433003e+04	6.072946e+04	5.368769e+04	4.846079e+04	4.468397e+04	4.022884e+04	3.817654e+04	3.502995e+04	3.253927e+04	3.134770e+04	3.540422e+04	6.305563e+04	9.392651e+04	9.697164e+04	9.928357e+04	1.013758e+05	1.020108e+05	1.038095e+05	1.034013e+05	1.016894e+05	1.011616e+05	9.831568e+04	9.500870e+04	9.153118e+04	8.603078e+04	8.056820e+04	7.666255e+04	7.159036e+04	7.197969e+04	7.737913e+04	8.210796e+04	8.820498e+04	9.182695e+04	9.537074e+04	9.820374e+04	9.955499e+04	1.008685e+05	1.017536e+05	1.019391e+05	1.025591e+05	1.027822e+05	1.029528e+05	1.032753e+05	1.035161e+05	1.038013e+05	1.041986e+05	1.045901e+05	1.050093e+05	1.054983e+05	1.059507e+05	1.064660e+05	1.070243e+05	1.076726e+05	1.084808e+05	1.092831e+05	1.085576e+05	1.130508e+05	1.118880e+05	1.123766e+05	1.124823e+05	1.127875e+05	1.130176e+05	1.132140e+05	1.134939e+05	1.136782e+05	1.139245e+05	1.141957e+05	1.144112e+05	1.148827e+05	1.149363e+05	1.155065e+05	1.157882e+05	1.156578e+05	1.160257e+05	1.153685e+05	1.155189e+05	1.149260e+05	1.132869e+05	1.121054e+05	1.099797e+05	1.075613e+05	1.052655e+05	1.018608e+05	9.897445e+04	9.647170e+04	9.328377e+04	9.162600e+04	8.817505e+04	8.632531e+04	8.550238e+04	8.428187e+04	8.567452e+04	8.600890e+04	8.800447e+04	9.214491e+04	9.478450e+04	9.754739e+04	1.006960e+05	1.025820e+05	1.044109e+05	1.061395e+05	1.060210e+05	1.067234e+05	1.064211e+05	1.053407e+05	1.047394e+05	1.030871e+05	1.017408e+05	1.001965e+05	9.869872e+04	9.216116e+04	6.086228e+04	4.008757e+04	3.602835e+04	3.778309e+04	4.238155e+04	4.875217e+04	5.260931e+04	6.316155e+04	7.513000e+04	8.115780e+04	8.974284e+04	9.714805e+04	1.019824e+05	1.069204e+05	1.117909e+05	1.129591e+05	1.143931e+05	1.150824e+05	1.122266e+05	1.101668e+05	1.075642e+05	1.018842e+05	9.746403e+04	9.401533e+04	8.910998e+04	9.058319e+04	9.341872e+04	9.677133e+04	1.031684e+05	1.070549e+05	1.114308e+05	1.158950e+05	1.188847e+05	1.214297e+05	1.233841e+05	1.246140e+05	1.260061e+05	1.275066e+05	1.293481e+05	1.320573e+05	1.370388e+05	1.387642e+05	1.481447e+05	
SCALARS Temperature double 1
LOOKUP_TABLE default
2.920108e+02	2.782763e+02	2.751524e+02	2.704644e+02	2.651508e+02	2.607367e+02	2.566613e+02	2.531098e+02	2.505477e+02	2.488083e+02	2.485510e+02	2.496240e+02	2.511673e+02	2.511068e+02	2.490382e+02	2.449571e+02	2.398098e+02	2.349792e+02	2.302936e+02	2.264572e+02	2.237221e+02	2.213134e+02	2.189147e+02	2.232328e+02	2.373190e+02	2.634761e+02	2.712960e+02	2.723982e+02	2.733252e+02	2.745141e+02	2.758572e+02	2.767998e+02	2.775594e+02	2.783342e+02	2.781191e+02	2.776692e+02	2.772031e+02	2.753525e+02	2.729835e+02	2.703042e+02	2.663864e+02	2.619938e+02	2.573878e+02	2.510537e+02	2.447075e+02	2.398649e+02	2.320480e+02	2.254488e+02	2.197889e+02	2.138045e+02	2.101925e+02	2.054967e+02	2.003899e+02	2.001358e+02	2.119431e+02	2.602795e+02	2.825139e+02	2.855815e+02	2.876938e+02	2.889114e+02	2.900682e+02	2.909597e+02	2.903490e+02	2.894914e+02	2.885264e+02	2.863954e+02	2.838480e+02	2.804986e+02	2.756168e+02	2.709518e+02	2.662596e+02	2.618956e+02	2.633472e+02	2.679706e+02	2.733317e+02	2.782179e+02	2.816327e+02	2.847457e+02	2.867591e+02	2.879780e+02	2.889865e+02	2.895424e+02	2.899113e+02	2.903353e+02	2.905130e+02	2.907170e+02	2.909688e+02	2.911533e+02	2.913859e+02	2.916846e+02	2.920032e+02	2.923439e+02	2.927017e+02	2.930967e+02	2.935162e+02	2.939481e+02	2.944443e+02	2.951203e+02	2.960277e+02	2.962088e+02	2.907489e+02	2.910738e+02	2.910989e+02	2.913519e+02	2.915073e+02	2.916681e+02	2.918172e+02	2.919839e+02	2.921296e+02	2.923057e+02	2.925087e+02	2.926812e+02	2.929480e+02	2.931382e+02	2.933879e+02	2.936263e+02	2.936702e+02	2.937525e+02	2.936092e+02	2.933792e+02	2.931011e+02	2.921287e+02	2.909642e+02	2.896249e+02	2.877711e+02	2.859092e+02	2.835099e+02	2.809277e+02	2.787737e+02	2.763230e+02	2.745291e+02	2.721514e+02	2.700384e+02	2.692868e+02	2.686124e+02	2.692787e+02	2.702257e+02	2.716732e+02	2.748490e+02	2.776544e+02	2.798485e+02	2.822635e+02	2.840530e+02	2.854432e+02	2.866440e+02	2.870639e+02	2.872536e+02	2.873005e+02	2.865814e+02	2.859452e+02	2.851155e+02	2.839006e+02	2.827775e+02	2.815686e+02	2.768149e+02	2.516152e+02	2.173459e+02	2.048911e+02	2.069196e+02	2.146055e+02	2.223424e+02	2.283373e+02	2.388047e+02	2.508203e+02	2.569822e+02	2.636933e+02	2.699382e+02	2.740531e+02	2.775442e+02	2.808849e+02	2.823708e+02	2.830419e+02	2.834945e+02	2.821700e+02	2.802131e+02	2.783489e+02	2.747567e+02	2.710100e+02	2.681216e+02	2.648382e+02	2.644621e+02	2.672204e+02	2.701622e+02	2.744583e+02	2.783091e+02	2.812203e+02	2.842295e+02	2.865342e+02	2.882036e+02	2.895862e+02	2.906423e+02	2.915793e+02	2.926872e+02	2.940870e+02	2.960400e+02	2.988359e+02	3.012596e+02	3.017754e+02	
SCALARS Mach double 1
LOOKUP_TABLE default
4.173675e-01	6.554163e-01	7.008671e-01	7.657635e-01	8.356705e-01	8.915231e-01	9.417157e-01	9.845955e-01	1.015121e+00	1.035679e+00	1.038709e+00	1.026053e+00	1.007767e+00	1.008486e+00	1.032968e+00	1.080789e+00	1.140393e+00	1.195834e+00	1.249338e+00	1.293056e+00	1.324221e+00	1.351689e+00	1.379083e+00	1.329798e+00	1.169027e+00	8.570679e-01	7.544995e-01	7.394161e-01	7.265840e-01	7.099178e-01	6.907861e-01	6.771506e-01	6.660293e-01	6.545547e-01	6.577538e-01	6.644105e-01	6.712607e-01	6.980147e-01	7.313290e-01	7.679231e-01	8.197038e-01	8.757912e-01	9.328508e-01	1.009118e+00	1.083695e+00	1.139758e+00	1.229326e+00	1.304545e+00	1.369094e+00	1.437648e+00	1.479281e+00	1.533796e+00	1.593708e+00	1.596708e+00	1.459074e+00	8.972142e-01	5.900247e-01	5.391486e-01	5.018330e-01	4.792733e-01	4.569971e-01	4.391897e-01	4.514529e-01	4.682148e-01	4.864987e-01	5.250208e-01	5.683248e-01	6.217352e-01	6.942349e-01	7.591739e-01	8.213501e-01	8.770250e-01	8.587036e-01	7.989887e-01	7.264927e-01	6.562852e-01	6.040382e-01	5.533638e-01	5.186086e-01	4.966421e-01	4.778529e-01	4.672326e-01	4.600707e-01	4.517231e-01	4.481876e-01	4.440958e-01	4.390047e-01	4.352407e-01	4.304554e-01	4.242421e-01	4.175270e-01	4.102429e-01	4.024681e-01	3.937320e-01	3.842611e-01	3.742896e-01	3.625341e-01	3.459449e-01	3.224664e-01	3.175911e-01	4.434548e-01	4.368646e-01	4.363519e-01	4.311568e-01	4.279400e-01	4.245867e-01	4.214579e-01	4.179383e-01	4.148371e-01	4.110655e-01	4.066792e-01	4.029181e-01	3.970406e-01	3.928052e-01	3.871792e-01	3.817418e-01	3.807340e-01	3.788346e-01	3.821332e-01	3.873767e-01	3.936328e-01	4.148565e-01	4.390967e-01	4.656384e-01	5.004250e-01	5.334956e-01	5.738812e-01	6.150820e-01	6.479829e-01	6.840695e-01	7.097055e-01	7.428098e-01	7.714961e-01	7.815518e-01	7.905129e-01	7.816596e-01	7.689796e-01	7.493583e-01	7.051782e-01	6.646284e-01	6.317168e-01	5.940320e-01	5.649350e-01	5.415206e-01	5.206436e-01	5.131863e-01	5.097890e-01	5.089458e-01	5.217488e-01	5.328710e-01	5.471087e-01	5.674562e-01	5.857846e-01	6.050488e-01	6.769303e-01	1.002440e+00	1.397028e+00	1.540864e+00	1.517225e+00	1.428445e+00	1.339951e+00	1.271636e+00	1.151961e+00	1.011889e+00	9.378035e-01	8.543075e-01	7.728419e-01	7.164082e-01	6.662526e-01	6.157475e-01	5.923172e-01	5.815083e-01	5.741348e-01	5.955227e-01	6.261324e-01	6.543344e-01	7.064861e-01	7.583853e-01	7.969986e-01	8.396854e-01	8.445025e-01	8.088334e-01	7.698332e-01	7.107043e-01	6.549278e-01	6.105160e-01	5.620028e-01	5.225805e-01	4.924902e-01	4.663858e-01	4.455992e-01	4.264410e-01	4.027875e-01	3.710335e-01	3.221383e-01	2.366889e-01	1.238720e-01	8.229339e-02	
SCALARS Pressure_Coefficient double 1
LOOKUP_TABLE default