# vtk DataFile Version 3.0
vtk output
ASCII
DATASET UNSTRUCTURED_GRID
POINTS 1841 double
1.000000e+02	0.000000e+00	0.0	9.917900e+01	1.278772e+01	0.0	9.672949e+01	2.536546e+01	0.0	9.269168e+01	3.752670e+01	0.0	8.713187e+01	4.907176e+01	0.0	8.014136e+01	5.981105e+01	0.0	7.183494e+01	6.956826e+01	0.0	6.234898e+01	7.818315e+01	0.0	5.183926e+01	8.551428e+01	0.0	4.047833e+01	9.144126e+01	0.0	2.845276e+01	9.586679e+01	0.0	1.595999e+01	9.871818e+01	0.0	3.205158e+00	9.994862e+01	0.0	-9.602303e+00	9.953791e+01	0.0	-2.225209e+01	9.749279e+01	0.0	-3.453651e+01	9.384684e+01	0.0	-4.625383e+01	8.865993e+01	0.0	-5.721167e+01	8.201723e+01	0.0	-6.723009e+01	7.402780e+01	0.0	-7.614460e+01	6.482284e+01	0.0	-8.380881e+01	5.455349e+01	0.0	-9.009689e+01	4.338837e+01	0.0	-9.490557e+01	3.151082e+01	0.0	-9.815592e+01	1.911586e+01	0.0	-9.979454e+01	6.407022e+00	0.0	-9.979454e+01	-6.407022e+00	0.0	-9.815592e+01	-1.911586e+01	0.0	-9.490557e+01	-3.151082e+01	0.0	-9.009689e+01	-4.338837e+01	0.0	-8.380881e+01	-5.455349e+01	0.0	-7.614460e+01	-6.482284e+01	0.0	-6.723009e+01	-7.402780e+01	0.0	-5.721167e+01	-8.201723e+01	0.0	-4.625383e+01	-8.865993e+01	0.0	-3.453651e+01	-9.384684e+01	0.0	-2.225209e+01	-9.749279e+01	0.0	-9.602303e+00	-9.953791e+01	0.0	3.205158e+00	-9.994862e+01	0.0	1.595999e+01	-9.871818e+01	0.0	2.845276e+01	-9.586679e+01	0.0	4.047833e+01	-9.144126e+01	0.0	5.183926e+01	-8.551428e+01	0.0	6.234898e+01	-7.818315e+01	0.0	7.183494e+01	-6.956826e+01	0.0	8.014136e+01	-5.981105e+01	0.0	8.713187e+01	-4.907176e+01	0.0	9.269168e+01	-3.752670e+01	0.0	9.672949e+01	-2.536546e+01	0.0	9.917900e+01	-1.278772e+01	0.0	0.000000e+00	0.000000e+00	0.0	3.395162e-03	3.670542e-03	0.0	7.070898e-03	7.292706e-03	0.0	1.162059e-02	1.016006e-02	0.0	1.643624e-02	1.294455e-02	0.0	2.171752e-02	1.528157e-02	0.0	2.723384e-02	1.758476e-02	0.0	3.306374e-02	1.967000e-02	0.0	3.912779e-02	2.173227e-02	0.0	4.546155e-02	2.367849e-02	0.0	5.204658e-02	2.555853e-02	0.0	5.889246e-02	2.735349e-02	0.0	6.601004e-02	2.900867e-02	0.0	7.337807e-02	3.062721e-02	0.0	8.103733e-02	3.200407e-02	0.0	8.894896e-02	3.333264e-02	0.0	9.712736e-02	3.454156e-02	0.0	1.055636e-01	3.568337e-02	0.0	1.142537e-01	3.680105e-02	0.0	1.231992e-01	3.788708e-02	0.0	1.323967e-01	3.897883e-02	0.0	1.418532e-01	4.001314e-02	0.0	1.515684e-01	4.099476e-02	0.0	1.615359e-01	4.196942e-02	0.0	1.717754e-01	4.269735e-02	0.0	1.822624e-01	4.344288e-02	0.0	1.930077e-01	4.395367e-02	0.0	2.040053e-01	4.428999e-02	0.0	2.152425e-01	4.462939e-02	0.0	2.267201e-01	4.469442e-02	0.0	2.384285e-01	4.476076e-02	0.0	2.503593e-01	4.496957e-02	0.0	2.625059e-01	4.535183e-02	0.0	2.748644e-01	4.574076e-02	0.0	2.873702e-01	4.697157e-02	0.0	3.000654e-01	4.830735e-02	0.0	3.128775e-01	5.011017e-02	0.0	3.257408e-01	5.274269e-02	0.0	3.387681e-01	5.540875e-02	0.0	3.518692e-01	5.846285e-02	0.0	3.650896e-01	6.164779e-02	0.0	3.784672e-01	6.473559e-02	0.0	3.920697e-01	6.735337e-02	0.0	4.057777e-01	6.999145e-02	0.0	4.197253e-01	7.150729e-02	0.0	4.338276e-01	7.245048e-02	0.0	4.479974e-01	7.310607e-02	0.0	4.622266e-01	7.230759e-02	0.0	4.764928e-01	7.150703e-02	0.0	4.907449e-01	7.024954e-02	0.0	5.049871e-01	6.877400e-02	0.0	5.192285e-01	6.737386e-02	0.0	5.334782e-01	6.631987e-02	0.0	5.476910e-01	6.526861e-02	0.0	5.618786e-01	6.494256e-02	0.0	5.760124e-01	6.495146e-02	0.0	5.900653e-01	6.502105e-02	0.0	6.040210e-01	6.534856e-02	0.0	6.178693e-01	6.567355e-02	0.0	6.315967e-01	6.553388e-02	0.0	6.451910e-01	6.518624e-02	0.0	6.586176e-01	6.457234e-02	0.0	6.717801e-01	6.268404e-02	0.0	6.847770e-01	6.081949e-02	0.0	6.974373e-01	5.816276e-02	0.0	7.098180e-01	5.505332e-02	0.0	7.220045e-01	5.197741e-02	0.0	7.338595e-01	4.846396e-02	0.0	7.455111e-01	4.501075e-02	0.0	7.569897e-01	4.175013e-02	0.0	7.682965e-01	3.870932e-02	0.0	7.793805e-01	3.572841e-02	0.0	7.904234e-01	3.362276e-02	0.0	8.012339e-01	3.157555e-02	0.0	8.118726e-01	2.999566e-02	0.0	8.223004e-01	2.865515e-02	0.0	8.324931e-01	2.744110e-02	0.0	8.424519e-01	2.637743e-02	0.0	8.521575e-01	2.530798e-02	0.0	8.615965e-01	2.412106e-02	0.0	8.707861e-01	2.296550e-02	0.0	8.797032e-01	2.166860e-02	0.0	8.883679e-01	2.036868e-02	0.0	8.967798e-01	1.905853e-02	0.0	9.049342e-01	1.769737e-02	0.0	9.128480e-01	1.637638e-02	0.0	9.205134e-01	1.503411e-02	0.0	9.279419e-01	1.372067e-02	0.0	9.351365e-01	1.243413e-02	0.0	9.420989e-01	1.116402e-02	0.0	9.488372e-01	9.934230e-03	0.0	9.553498e-01	8.713700e-03	0.0	9.616468e-01	7.533584e-03	0.0	9.677283e-01	6.371051e-03	0.0	9.736023e-01	5.244187e-03	0.0	9.792704e-01	4.137028e-03	0.0	9.847398e-01	3.061223e-03	0.0	9.900140e-01	2.010309e-03	0.0	9.950975e-01	9.821575e-04	0.0	1.000000e+00	0.000000e+00	0.0	9.950042e-01	2.034732e-04	0.0	9.898194e-01	3.945401e-04	0.0	9.844397e-01	5.374518e-04	0.0	9.788607e-01	6.370165e-04	0.0	9.730781e-01	7.127458e-04	0.0	9.670867e-01	7.317355e-04	0.0	9.608824e-01	7.279331e-04	0.0	9.544607e-01	6.595190e-04	0.0	9.478171e-01	5.746475e-04	0.0	9.409486e-01	3.950142e-04	0.0	9.338496e-01	2.093489e-04	0.0	9.265195e-01	-8.705057e-05	0.0	9.189521e-01	-4.161516e-04	0.0	9.111482e-01	-8.433201e-04	0.0	9.031080e-01	-1.426733e-03	0.0	8.948207e-01	-2.028077e-03	0.0	8.863192e-01	-3.013023e-03	0.0	8.775714e-01	-4.070863e-03	0.0	8.686120e-01	-5.420001e-03	0.0	8.594550e-01	-7.157969e-03	0.0	8.500532e-01	-8.971280e-03	0.0	8.405554e-01	-1.151310e-02	0.0	8.308108e-01	-1.412096e-02	0.0	8.209088e-01	-1.709917e-02	0.0	8.107988e-01	-2.026835e-02	0.0	8.004588e-01	-2.354163e-02	0.0	7.898957e-01	-2.693201e-02	0.0	7.790966e-01	-3.038667e-02	0.0	7.679950e-01	-3.367595e-02	0.0	7.566675e-01	-3.703212e-02	0.0	7.450275e-01	-4.011101e-02	0.0	7.331039e-01	-4.299631e-02	0.0	7.209586e-01	-4.587657e-02	0.0	7.084231e-01	-4.787200e-02	0.0	6.956896e-01	-4.989896e-02	0.0	6.826889e-01	-5.120226e-02	0.0	6.694378e-01	-5.184947e-02	0.0	6.560158e-01	-5.247493e-02	0.0	6.424342e-01	-5.180582e-02	0.0	6.287043e-01	-5.112940e-02	0.0	6.148480e-01	-5.028862e-02	0.0	6.008771e-01	-4.929899e-02	0.0	5.867950e-01	-4.833617e-02	0.0	5.725842e-01	-4.813627e-02	0.0	5.582912e-01	-4.793522e-02	0.0	5.439705e-01	-4.866773e-02	0.0	5.296266e-01	-5.009743e-02	0.0	5.152572e-01	-5.162436e-02	0.0	5.009766e-01	-5.399333e-02	0.0	4.866884e-01	-5.636356e-02	0.0	4.723867e-01	-5.859907e-02	0.0	4.580940e-01	-6.074553e-02	0.0	4.438215e-01	-6.271672e-02	0.0	4.294808e-01	-6.349900e-02	0.0	4.152076e-01	-6.427759e-02	0.0	4.010141e-01	-6.407245e-02	0.0	3.869155e-01	-6.337360e-02	0.0	3.729331e-01	-6.258490e-02	0.0	3.590996e-01	-6.141796e-02	0.0	3.454018e-01	-6.026245e-02	0.0	3.318261e-01	-5.952542e-02	0.0	3.184002e-01	-5.895448e-02	0.0	3.051471e-01	-5.869712e-02	0.0	2.920812e-01	-5.940883e-02	0.0	2.792065e-01	-6.011013e-02	0.0	2.665845e-01	-6.140678e-02	0.0	2.541877e-01	-6.288252e-02	0.0	2.420093e-01	-6.435928e-02	0.0	2.300633e-01	-6.589353e-02	0.0	2.183454e-01	-6.739849e-02	0.0	2.068185e-01	-6.846061e-02	0.0	1.955143e-01	-6.933953e-02	0.0	1.844471e-01	-6.999969e-02	0.0	1.736018e-01	-6.989242e-02	0.0	1.630073e-01	-6.978763e-02	0.0	1.527168e-01	-6.888999e-02	0.0	1.427000e-01	-6.769822e-02	0.0	1.329881e-01	-6.626162e-02	0.0	1.237103e-01	-6.389001e-02	0.0	1.146802e-01	-6.158173e-02	0.0	1.061551e-01	-5.854893e-02	0.0	9.798104e-02	-5.525842e-02	0.0	9.007527e-02	-5.198642e-02	0.0	8.266304e-02	-4.823140e-02	0.0	7.547184e-02	-4.458835e-02	0.0	6.855822e-02	-4.094372e-02	0.0	6.190955e-02	-3.731477e-02	0.0	5.546145e-02	-3.381662e-02	0.0	4.911418e-02	-3.063173e-02	0.0	4.297313e-02	-2.755031e-02	0.0	3.691936e-02	-2.481356e-02	0.0	3.105557e-02	-2.219464e-02	0.0	2.538494e-02	-1.967697e-02	0.0	1.996972e-02	-1.712062e-02	0.0	1.485696e-02	-1.441775e-02	0.0	1.019426e-02	-1.136651e-02	0.0	5.930067e-03	-8.108345e-03	0.0	2.245370e-03	-4.455795e-03	0.0	7.826227e-01	-5.091882e-02	0.0	7.685843e-01	-5.414403e-02	0.0	7.804963e-01	-6.562868e-02	0.0	8.791877e+01	2.755983e+01	0.0	8.289865e+01	3.609380e+01	0.0	8.058155e+01	2.679753e+01	0.0	7.922429e+01	-1.229034e+01	0.0	7.848450e+01	-2.291616e+01	0.0	8.818436e+01	-1.720586e+01	0.0	8.692850e+01	-4.735494e+00	0.0	3.560310e+01	2.263376e+01	0.0	4.567901e+01	2.807714e+01	0.0	3.832210e+01	3.628126e+01	0.0	7.422410e+01	1.832544e+01	0.0	7.367164e+01	3.160443e+01	0.0	6.718242e+01	-3.163992e+01	0.0	7.568599e+01	-4.252928e+01	0.0	8.169459e+01	-3.522145e+01	0.0	8.780688e+01	-2.754164e+01	0.0	5.352557e+01	2.205042e+01	0.0	4.349511e+01	1.682405e+01	0.0	5.158924e+01	1.203585e+01	0.0	5.624057e+01	-6.302276e+01	0.0	5.568091e+01	-5.299992e+01	0.0	4.646055e+01	-6.319331e+01	0.0	6.800707e+01	5.963824e+01	0.0	7.220189e+01	5.015382e+01	0.0	5.748954e+01	6.580934e+01	0.0	4.502977e+01	-7.398057e+01	0.0	5.417280e+01	-7.192451e+01	0.0	6.601049e+01	-4.542100e+01	0.0	5.077361e+01	7.512556e+01	0.0	2.728659e+01	5.566221e+01	0.0	2.111952e+01	6.320869e+01	0.0	1.738316e+01	5.436932e+01	0.0	6.279805e+01	-6.737322e+01	0.0	2.552487e+01	7.310516e+01	0.0	3.901511e+01	7.885829e+01	0.0	2.446998e+01	8.658500e+01	0.0	3.542798e+01	-6.950891e+01	0.0	2.853447e+01	-7.608952e+01	0.0	3.827146e+01	-8.028451e+01	0.0	-9.765219e-01	6.262790e+01	0.0	-4.020034e+00	4.843601e+01	0.0	7.124945e+00	5.270232e+01	0.0	8.710836e+00	8.913898e+01	0.0	1.216572e+01	7.725194e+01	0.0	8.436339e-01	-6.247919e-02	0.0	8.379949e-01	-4.936111e-02	0.0	8.263110e-01	-5.675260e-02	0.0	3.989792e-01	7.849873e-02	0.0	4.109797e-01	8.332662e-02	0.0	3.969158e-01	8.973884e-02	0.0	3.044461e-01	1.312571e-01	0.0	3.182234e-01	1.039152e-01	0.0	3.378041e-01	1.266657e-01	0.0	5.962652e-01	-2.062232e-01	0.0	5.343533e-01	-1.831319e-01	0.0	5.424607e-01	-2.573518e-01	0.0	4.802012e-01	-6.734412e-02	0.0	4.881009e-01	-7.373393e-02	0.0	4.917843e-01	-6.450853e-02	0.0	4.479882e-01	-1.194039e-01	0.0	4.699135e-01	-1.160306e-01	0.0	4.581596e-01	-1.035881e-01	0.0	2.128658e-01	-8.135532e-02	0.0	2.238942e-01	-9.043737e-02	0.0	2.260768e-01	-7.682963e-02	0.0	3.569286e-01	-1.733432e-01	0.0	3.314956e-01	-1.456352e-01	0.0	3.114615e-01	-1.750642e-01	0.0	8.993756e-01	-8.197879e-03	0.0	7.655589e-01	-4.286793e-02	0.0	7.589741e-01	-4.827112e-02	0.0	3.806090e-01	7.421603e-02	0.0	3.676725e-01	7.562963e-02	0.0	3.919039e-01	1.227032e-01	0.0	3.884006e-01
[...]
POINT_DATA 1841

SCALARS Density double 1
LOOKUP_TABLE default
1.291797e+00	1.291800e+00	1.292051e+00	1.292174e+00	1.292110e+00	1.292036e+00	1.291989e+00	1.291933e+00	1.291866e+00	1.291801e+00	1.291752e+00	1.291726e+00	1.291730e+00	1.291785e+00	1.291871e+00	1.291966e+00	1.292043e+00	1.292109e+00	1.292159e+00	1.292195e+00	1.292223e+00	1.292244e+00	1.292259e+00	1.292272e+00	1.292284e+00	1.292295e+00	1.292307e+00	1.292320e+00	1.292336e+00	1.292359e+00	1.292386e+00	1.292421e+00	1.292468e+00	1.292525e+00	1.292597e+00	1.292680e+00	1.292762e+00	1.292826e+00	1.292840e+00	1.292816e+00	1.292766e+00	1.292695e+00	1.292623e+00	1.292552e+00	1.292482e+00	1.292435e+00	1.292423e+00	1.292314e+00	1.292048e+00	1.386889e+00	1.068232e+00	1.051693e+00	9.878932e-01	9.633686e-01	9.448987e-01	9.525806e-01	9.502442e-01	9.491081e-01	9.409123e-01	9.278137e-01	9.094438e-01	8.913682e-01	8.644265e-01	8.387409e-01	8.263504e-01	8.162458e-01	8.163322e-01	8.225280e-01	8.307626e-01	8.337335e-01	8.345624e-01	8.568664e-01	9.290997e-01	1.037631e+00	1.090413e+00	1.100807e+00	1.125986e+00	1.151682e+00	1.183789e+00	1.225517e+00	1.254675e+00	1.270799e+00	1.297721e+00	1.307959e+00	1.299765e+00	1.307837e+00	1.283916e+00	1.248655e+00	1.219141e+00	1.169748e+00	1.103950e+00	1.046262e+00	9.605390e-01	8.707755e-01	8.235745e-01	7.434731e-01	6.800575e-01	6.579574e-01	6.359551e-01	6.329834e-01	6.560434e-01	6.798340e-01	7.242657e-01	7.840939e-01	8.108635e-01	8.360714e-01	8.607157e-01	8.421952e-01	8.146459e-01	7.985150e-01	7.259042e-01	6.625665e-01	6.315267e-01	6.305669e-01	7.684397e-01	1.092404e+00	1.193671e+00	1.221730e+00	1.236967e+00	1.248349e+00	1.269439e+00	1.273692e+00	1.268962e+00	1.270981e+00	1.262492e+00	1.254436e+00	1.247642e+00	1.237560e+00	1.235695e+00	1.233699e+00	1.233793e+00	1.239080e+00	1.241110e+00	1.245862e+00	1.251022e+00	1.255430e+00	1.261220e+00	1.265512e+00	1.271066e+00	1.275968e+00	1.280891e+00	1.286574e+00	1.291742e+00	1.297827e+00	1.303857e+00	1.311504e+00	1.321030e+00	1.316528e+00	1.353210e+00	1.449595e+00	1.416262e+00	1.412504e+00	1.418548e+00	1.420379e+00	1.422562e+00	1.424027e+00	1.426939e+00	1.428484e+00	1.431080e+00	1.433865e+00	1.435901e+00	1.441832e+00	1.441683e+00	1.449859e+00	1.452227e+00	1.451335e+00	1.458146e+00	1.450755e+00	1.454834e+00	1.448787e+00	1.432914e+00	1.422735e+00	1.400924e+00	1.381221e+00	1.357998e+00	1.326852e+00	1.301859e+00	1.269458e+00	1.234381e+00	1.207358e+00	1.151375e+00	1.110543e+00	1.066968e+00	1.028574e+00	1.044298e+00	1.045953e+00	1.096304e+00	1.175706e+00	1.216963e+00	1.261319e+00	1.312428e+00	1.335556e+00	1.355585e+00	1.376969e+00	1.362639e+00	1.361307e+00	1.342636e+00	1.302572e+00	1.269238e+00	1.228503e+00	1.153824e+00	1.116923e+00	1.095644e+00	1.093325e+00	1.145029e+00	1.182967e+00	1.223199e+00	1.276827e+00	1.306197e+00	1.325218e+00	1.356279e+00	1.356365e+00	1.348578e+00	1.343348e+00	1.315288e+00	1.291509e+00	1.262275e+00	1.214041e+00	1.182513e+00	1.138905e+00	1.038380e+00	9.384305e-01	8.887500e-01	8.952294e-01	9.409289e-01	9.523168e-01	1.015624e+00	1.073025e+00	1.124207e+00	1.209805e+00	1.246537e+00	1.297499e+00	1.358091e+00	1.392135e+00	1.429049e+00	1.465225e+00	1.486630e+00	1.506185e+00	1.521944e+00	1.529067e+00	1.539792e+00	1.548505e+00	1.563623e+00	1.585810e+00	1.619183e+00	1.627627e+00	1.669079e+00	1.308010e+00	1.275384e+00	1.302153e+00	1.292105e+00	1.292119e+00	1.292060e+00	1.292154e+00	1.292272e+00	1.292208e+00	1.291988e+00	1.291932e+00	1.291979e+00	1.291812e+00	1.292027e+00	1.292093e+00	1.292449e+00	1.292437e+00	1.292391e+00	1.292330e+00	1.292021e+00	1.291922e+00	1.291970e+00	1.292617e+00	1.292587e+00	1.292697e+00	1.291982e+00	1.292028e+00	1.291918e+00	1.292717e+00	1.292654e+00	1.292483e+00	1.291867e+00	1.291621e+00	1.291582e+00	1.291451e+00	1.292589e+00	1.291665e+00	1.291777e+00	1.291710e+00	1.292795e+00	1.292852e+00	1.292777e+00	1.291449e+00	1.291238e+00	1.291316e+00	1.291676e+00	1.291616e+00	1.392146e+00	1.396484e+00	1.379313e+00	1.025357e+00	9.647936e-01	1.048920e+00	1.227870e+00	1.243693e+00	1.203871e+00	1.278050e+00	1.276770e+00	1.275379e+00	1.253891e+00	1.270736e+00	1.282191e+00	1.207859e+00	1.235120e+00	1.209230e+00	1.180373e+00	1.216697e+00	1.214219e+00	1.267755e+00	1.279788e+00	1.278454e+00	1.445804e+00	1.265080e+00	1.248117e+00	1.103147e+00	1.158018e+00	1.090408e+00	1.109745e+00	1.152581e+00	1.205551e+00	1.241434e+00	8.868265e-01	1.032495e+00	9.624064e-01	1.065655e+00	1.250136e+00	1.221564e+00	1.240578e+00	1.262142e+00	1.267200e+00	1.283204e+00	1.291651e+00	1.277087e+00	1.268065e+00	1.262239e+00	9.879062e-01	9.714312e-01	8.704809e-01	1.287863e+00	1.299463e+00	1.284383e+00	1.285118e+00	1.277855e+00	8.178401e-01	8.716144e-01	8.019451e-01	1.285504e+00	1.296256e+00	1.282228e+00	1.200648e+00	1.229012e+00	1.267643e+00	1.208085e+00	1.175523e+00	1.190779e+00	1.238621e+00	1.208115e+00	1.240464e+00	1.218804e+00	1.244409e+00	1.238742e+00	1.266884e+00	1.271195e+00	1.319956e+00	1.341821e+00	1.331552e+00	1.183081e+00	1.154946e+00	1.329081e+00	1.329854e+00	1.317376e+00	1.240873e+00	1.142272e+00	1.124641e+00	1.109320e+00	1.175973e+00	1.137145e+00	1.282722e+00	1.301296e+00	1.287001e+00	1.359290e+00	1.358216e+00	1.272687e+00	1.269254e+00	1.257733e+00	7.992737e-01	8.339266e-01	1.315712e+00	1.297273e+00	1.251833e+00	1.219568e+00	1.250090e+00	1.427079e+00	1.423560e+00	1.426534e+00	1.280483e+00	1.270862e+00	1.277471e+00	1.262310e+00	1.255825e+00	1.266731e+00	1.250574e+00	1.243772e+00	1.295105e+00	1.290052e+00	1.294991e+00	1.248781e+00	1.254966e+00	1.081093e+00	9.653438e-01	1.265149e+00	1.265224e+00	1.270038e+00	1.262992e+00	1.261328e+00	1.270262e+00	1.260717e+00	1.268502e+00	1.280393e+00	1.286637e+00	1.284275e+00	1.279512e+00	1.272221e+00	1.271724e+00	1.273899e+00	1.273384e+00	1.294245e+00	1.307641e+00	1.299151e+00	1.289681e+00	1.290395e+00	1.295107e+00	1.296016e+00	1.316201e+00	1.326030e+00	1.320062e+00	9.922700e-01	1.096682e+00	9.021783e-01	1.304061e+00	1.277563e+00	1.271593e+00	1.146363e+00	1.060795e+00	1.077671e+00	1.191782e+00	1.124117e+00	1.312148e+00	1.328125e+00	1.318525e+00	1.321851e+00	1.333978e+00	1.327138e+00	1.332448e+00	1.335851e+00	1.330109e+00	9.338110e-01	1.242601e+00	9.861107e-01	9.392582e-01	9.703004e-01	1.305025e+00	1.285347e+00	9.816413e-01	1.025372e+00	9.554861e-01	9.818581e-01	1.014415e+00	1.325286e+00	1.326068e+00	1.337905e+00	1.326270e+00	1.336560e+00	9.800927e-01	1.205150e+00	1.184207e+00	1.247686e+00	1.333708e+00	1.322346e+00	1.141200e+00	1.133752e+00	1.387544e+00	1.398424e+00	1.422581e+00	1.433077e+00	1.425327e+00	1.291289e+00	1.291063e+00	1.290907e+00	1.291929e+00	1.288059e+00	1.290763e+00	1.340952e+00	1.348015e+00	1.337844e+00	1.319472e+00	1.309779e+00	1.303235e+00	1.338120e+00	1.271382e+00	1.291446e+00	1.124576e+00	1.250548e+00	1.192486e+00	8.629174e-01	8.638969e-01	8.786218e-01	9.000693e-01	7.578258e-01	7.925863e-01	1.204482e+00	1.140129e+00	1.183248e+00	8.667383e-01	8.941463e-01	8.487862e-01	8.602569e-01	8.988696e-01	8.527067e-01	8.235381e-01	8.509939e-01	1.290871e+00	1.290353e+00	6.544888e-01	6.900821e-01	6.838581e-01	7.642619e-01	6.869643e-01	1.235933e+00	1.225823e+00	1.242774e+00	1.258721e+00	1.259145e+00	1.291836e+00	1.291778e+00	7.564715e-01	6.921500e-01	7.234583e-01	6.764837e-01	9.335565e-01	8.488677e-01	6.381026e-01	6.439415e-01	1.171580e+00	1.175153e+00	1.151881e+00	1.132925e+00	1.127124e+00	1.109935e+00	9.466540e-01	9.439349e-01	1.032738e+00	1.036325e+00	1.111064e+00	1.291782e+00	1.291701e+00	8.772869e-01	8.472333e-01	8.514333e-01	8.450134e-01	8.375189e-01	8.618271e-01	8.637928e-01	1.291929e+00	8.994320e-01	9.012742e-01	8.645147e-01	9.490787e-01	9.729551e-01	9.649395e-01	9.965060e-01	9.025901e-01	9.274201e-01	9.506032e-01	1.292027e+00	1.291528e+00	1.291186e+00	1.291142e+00	1.292148e+00	1.291988e+00	1.291967e+00	1.291698e+00	1.292266e+00	1.292204e+00	1.292264e+00	1.055499e+00	1.029016e+00	1.019378e+00	1.292120e+00	1.292171e+00	1.292127e+00	1.136863e+00	1.221186e+00	1.140748e+00	1.292184e+00	1.292149e+00	1.292220e+00	1.292262e+00	1.292248e+00	1.292257e+00	1.292192e+00	1.292235e+00	1.292299e+00	1.292314e+00	1.292326e+00	1.292342e+00	1.292373e+00	1.292375e+00	1.292416e+00	1.292414e+00	1.292486e+00	1.292373e+00	1.292354e+00	1.292440e+00	1.292180e+00	1.292485e+00	1.292450e+00	1.292412e+00	1.292552e+00	1.293217e+00	1.295279e+00	1.292663e+00	1.292483e+00	1.297149e+00	1.300201e+00	1.298987e+00	1.334881e+00	1.318149e+00	1.335854e+00	1.292562e+00	1.300777e+00	1.303544e+00	1.350364e+00	1.351295e+00	1.331128e+00	1.273624e+00	1.301570e+00	1.279413e+00	1.409872e+00	1.289737e+00	1.313375e+00	1.446355e+00	1.436420e+00	1.444327e+00	1.447881e+00	1.449069e+00	1.441418e+00	1.364870e+00	1.442556e+00	1.369515e+00	1.350333e+00	1.367124e+00	1.640630e+00	1.628441e+00	1.542949e+00	1.502212e+00	1.521338e+00	1.428040e+00	1.465081e+00	1.430945e+00	1.639633e+00	1.330154e+00	1.346338e+00	1.337555e+00	1.579847e+00	1.586970e+00	1.598357e+00	1.150184e+00	1.283222e+00	1.359732e+00	1.375812e+00	1.384228e+00	1.184590e+00	1.221575e+00	1.415406e+00	1.408321e+00	1.418222e+00	1.429885e+00	1.433287e+00	1.429798e+00	1.434123e+00	1.437358e+00	1.429444e+00	1.367280e+00	1.347075e+00	1.405709e+00	1.293054e+00	1.293076e+00	1.293172e+00	1.548240e+00	1.535200e+00	1.292807e+00	1.292648e+00	1.292696e+00	1.526154e+00	1.526388e+00	1.507526e+00	1.515950e+00	1.293035e+00	1.292981e+00	1.292968e+00	1.463810e+00	1.461726e+00	1.432200e+00	1.296097e+00	1.294527e+00	1.295480e+00	1.292890e+00	1.292786e+00	1.292844e+00	1.323183e+00	1.315466e+00	1.314057e+00	1.414280e+00	1.388819e+00	1.389365e+00	1.380263e+00	1.361376e+00	1.298372e+00	1.300979e+00	1.298120e+00	1.328096e+00	1.251583e+00	1.215417e+00	1.196253e+00	1.345910e+00	1.342966e+00	1.293702e+00	1.269611e+00	1.267133e+00	1.292835e+00	1.292866e+00	1.292006e+00	1.210958e+00	1.250946e+00	1.233006e+00	1.263325e+00	1.232782e+00	1.261600e+00	1.204023e+00	1.176133e+00	1.159395e+00	1.160773e+00	1.130881e+00	1.088980e+00	1.119294e+00	1.078629e+00	1.128609e+00	1.104919e+00	1.151706e+00	1.292290e+00	1.291509e+00	1.292350e+00	1.292005e+00	1.292092e+00	1.292008e+00	1.292991e+00	1.293989e+00	1.292784e+00	1.424916e+00	1.293184e+00	1.293198e+00	1.293908e+00	1.293075e+00	1.292742e+00	1.292932e+00	1.292338e+00	1.292304e+00	1.292318e+00	1.291944e+00	1.291742e+00	1.291868e+00	1.293541e+00	1.293336e+00	1.293252e+00	1.292647e+00	1.292735e+00	1.291811e+00	1.291740e+00	1.291939e+00	1.291872e+00	1.292030e+00	1.291979e+00	1.292528e+00	1.292532e+00	1.292476e+00	1.292072e+00	1.292089e+00	1.292037e+00	1.293718e+00	1.292587e+00	1.292836e+00	9.804049e-01	9.950178e-01	1.292131e+00	1.292141e+00	1.293711e+00	1.494595e+00	1.523113e+00	1.529820e+00	1.291435e+00	1.291181e+00	1.291415e+00	1.292023e+00	1.290290e+00	1.289495e+00	1.289331e+00	1.287688e+00	1.288986e+00	1.293797e+00	1.292715e+00	1.292676e+00	1.292829e+00	1.292568e+00	1.292363e+00	1.292386e+00	1.292038e+00	1.291708e+00	1.291617e+00	1.292866e+00	1.292929e+00	1.292913e+00	1.292070e+00	1.292024e+00	1.291930e+00	1.291839e+00	1.291907e+00	1.291945e+00	1.291975e+00	1.292261e+00	1.293091e+00	1.292577e+00	1.291570e+00	1.292335e+00	1.292455e+00	1.199152e+00	1.300133e+00	1.305040e+00	1.289491e+00	1.290457e+00	1.291697e+00	1.291519e+00	1.293072e+00	1.291772e+00	1.291637e+00	1.292033e+00	1.292081e+00	1.292355e+00	1.292578e+00	1.292492e+00	1.291285e+00	1.291460e+00	1.292813e+00	1.292953e+00	1.292484e+00	1.292545e+00	1.292546e+00	1.292676e+00	1.293819e+00	1.294311e+00	1.292772e+00	1.291669e+00	1.292934e+00	1.293496e+00	1.296869e+00	1.296048e+00	1.298407e+00	1.290374e+00	1.185399e+00	1.206700e+00	1.211981e+00	1.291951e+00	1.292052e+00	1.292636e+00	1.292435e+00	1.291931e+00	1.291626e+00	1.292270e+00	1.292144e+00	1.292436e+00	1.292470e+00	1.292231e+00	1.292350e+00	1.292076e+00	1.291967e+00	1.293138e+00	1.292778e+00	1.291523e+00	1.291556e+00	1.292834e+00	1.291976e+00	1.291949e+00	1.292908e+00	1.292028e+00	1.292497e+00	1.292480e+00	1.292516e+00	1.292569e+00	1.292688e+00	1.292751e+00	1.292754e+00	1.292914e+00	1.292942e+00	1.292950e+00	1.291798e+00	1.292484e+00	1.291568e+00	1.292295e+00	1.292544e+00	1.291995e+00	1.291998e+00	1.292468e+00	1.292761e+00	1.292599e+00	1.291825e+00	1.291809e+00	1.293351e+00	1.289011e+00	1.291413e+00	1.291896e+00	1.291821e+00	1.292313e+00	1.291847e+00	1.291952e+00	1.291741e+00	1.292615e+00	1.291864e+00	1.291857e+00	1.291755e+00	1.291700e+00	1.291514e+00	1.294770e+00	1.293993e+00	1.296555e+00	1.293148e+00	1.292592e+00	1.292732e+00	1.292274e+00	1.291013e+00	1.291933e+00	1.287571e+00	1.289629e+00	1.293475e+00	1.293090e+00	1.293776e+00	1.293666e+00	1.291328e+00	1.295046e+00	1.291047e+00	1.291991e+00	1.512141e+00	1.499979e+00	1.294409e+00	1.291394e+00	1.291840e+00	1.290792e+00	1.290140e+00	1.291072e+00	1.290664e+00	1.295545e+00	1.419035e+00	1.294103e+00	1.294880e+00	1.287999e+00	1.283715e+00	1.285279e+00	1.289241e+00	1.293116e+00	1.290539e+00	1.291531e+00	1.297331e+00	1.300863e+00	1.299651e+00	1.290736e+00	1.294812e+00	1.300675e+00	1.416458e+00	1.421037e+00	1.290597e+00	1.288165e+00	6.767003e-01	7.294717e-01	6.871628e-01	1.285029e+00	1.299062e+00	1.302100e+00	1.284846e+00	1.289293e+00	9.856905e-01	9.843858e-01	1.288945e+00	1.288659e+00	1.296039e+00	1.295857e+00	1.297573e+00	1.295905e+00	1.289304e+00	1.290992e+00	1.281220e+00	1.274829e+00	1.283211e+00	1.271968e+00	1.257394e+00	1.265176e+00	1.305481e+00	1.305261e+00	1.302006e+00	1.295141e+00	1.305045e+00	1.303459e+00	1.370843e+00	1.424650e+00	1.414124e+00	1.288088e+00	1.291418e+00	1.291847e+00	1.297051e+00	1.274535e+00	1.298205e+00	1.316989e+00	1.318685e+00	1.310654e+00	1.294338e+00	1.299754e+00	1.288568e+00	1.290519e+00	1.303755e+00	1.281669e+00	1.270323e+00	1.282109e+00	1.316471e+00	1.314822e+00	1.324360e+00	1.418231e+00	1.420123e+00	1.305285e+00	1.303996e+00	1.309553e+00	1.307036e+00	1.310341e+00	1.311353e+00	1.227270e+00	1.217363e+00	1.295383e+00	1.304836e+00	1.298413e+00	1.295140e+00	1.290070e+00	1.306370e+00	1.216970e+00	1.187711e+00	1.307224e+00	1.318022e+00	9.913636e-01	1.286799e+00	1.297767e+00	1.291977e+00	1.289358e+00	1.290335e+00	1.298901e+00	1.289556e+00	1.279088e+00	1.272408e+00	1.248002e+00	7.279769e-01	1.256331e+00	1.298701e+00	1.305787e+00	1.308475e+00	1.304033e+00	1.302545e+00	1.322122e+00	1.246100e+00	1.324699e+00	1.413429e+00	1.412881e+00	1.409338e+00	1.306758e+00	1.288296e+00	1.293366e+00	1.301801e+00	1.280112e+00	1.109436e+00	1.123136e+00	1.038410e+00	1.266657e+00	1.255574e+00	1.215014e+00	1.305729e+00	1.297288e+00	1.343405e+00	1.333186e+00	1.305535e+00	1.314831e+00	1.265178e+00	1.289215e+00	1.309713e+00	1.301450e+00	1.314481e+00	1.405533e+00	1.403654e+00	1.310341e+00	1.313135e+00	1.023806e+00	1.055382e+00	1.111326e+00	1.316649e+00	1.311201e+00	1.298178e+00	1.294439e+00	1.307560e+00	1.302015e+00	1.300271e+00	1.290362e+00	1.287663e+00	1.307996e+00	1.471254e+00	1.443494e+00	1.205346e+00	1.159525e+00	1.189415e+00	1.160350e+00	1.188731e+00	1.247892e+00	1.343959e+00	1.328203e+00	1.248404e+00	1.290396e+00	1.299667e+00	1.291001e+00	1.294336e+00	1.291288e+00	1.295153e+00	1.317157e+00	1.322386e+00	1.294545e+00	1.302046e+00	1.289772e+00	6.667063e-01	6.868880e-01	1.280012e+00	1.283157e+00	1.305166e+00	1.312958e+00	1.300120e+00	1.319408e+00	1.250508e+00	1.291142e+00	1.320000e+00	1.328008e+00	1.293097e+00	1.340355e+00	1.214321e+00	1.116730e+00	1.169786e+00	1.148220e+00	1.335310e+00	1.380651e+00	1.412428e+00	1.396514e+00	1.292812e+00	1.097307e+00	1.263227e+00	1.283004e+00	1.278837e+00	1.320848e+00	1.313773e+00	1.334689e+00	1.298552e+00	1.303828e+00	1.306646e+00	1.292365e+00	1.317607e+00	1.242612e+00	1.317779e+00	1.356185e+00	9.750920e-01	1.362014e+00	1.360884e+00	1.266173e+00	1.202987e+00	1.245677e+00	1.295708e+00	1.274237e+00	1.218976e+00	1.172880e+00	1.224031e+00	1.335860e+00	1.344569e+00	1.362670e+00	1.358458e+00	1.201080e+00	1.310619e+00	1.316659e+00	1.328474e+00	1.140078e+00	1.160087e+00	1.525646e+00	1.541677e+00	1.195591e+00	1.272313e+00	1.261714e+00	1.105705e+00	1.284923e+00	1.267062e+00	1.309251e+00	1.252824e+00	1.278671e+00	1.256263e+00	1.081331e+00	7.390922e-01	7.309052e-01	1.275052e+00	1.353363e+00	1.331176e+00	1.094023e+00	1.217642e+00	1.422275e+00	1.461492e+00	1.464624e+00	1.126676e+00	1.323878e+00	1.324606e+00	1.397919e+00	1.385007e+00	1.429297e+00	1.376542e+00	1.279074e+00	1.321171e+00	1.332298e+00	1.341986e+00	1.396886e+00	1.305312e+00	1.147248e+00	1.315677e+00	1.369483e+00	1.204445e+00	1.246614e+00	1.245416e+00	8.645563e-01	8.020486e-01	1.346983e+00	1.336777e+00	1.357551e+00	1.298314e+00	1.272661e+00	1.165714e+00	1.331054e+00	1.043950e+00	6.482369e-01	1.259684e+00	1.291509e+00	1.249948e+00	1.134290e+00	1.172472e+00	1.281453e+00	1.246188e+00	1.251261e+00	1.179123e+00	1.169960e+00	9.962447e-01	1.060282e+00	1.047554e+00	1.363594e+00	1.369087e+00	1.215198e+00	1.185531e+00	1.323872e+00	1.243546e+00	1.297464e+00	1.018405e+00	1.429220e+00	1.414032e+00	1.385722e+00	1.271420e+00	1.292812e+00	1.269729e+00	1.446824e+00	1.265131e+00	1.124653e+00	1.150067e+00	1.314325e+00	1.324233e+00	1.353033e+00	1.362468e+00	1.388917e+00	1.421675e+00	1.400337e+00	1.424031e+00	1.427191e+00	8.765022e-01	7.890693e-01	8.364732e-01	8.175255e-01	1.365598e+00	1.332286e+00	1.334893e+00	1.137886e+00	1.234900e+00	1.237311e+00	1.244994e+00	1.188146e+00	1.299483e+00	1.286874e+00	1.281771e+00	1.255198e+00	1.338853e+00	1.324665e+00	1.208939e+00	1.286831e+00	1.259917e+00	1.226899e+00	9.464841e-01	1.125303e+00	1.247887e+00	1.327434e+00	1.262330e+00	1.441987e+00	1.438351e+00	1.439911e+00	1.394649e+00	1.380335e+00	1.380763e+00	1.458709e+00	1.487946e+00	1.464628e+00	1.477720e+00	1.505185e+00	6.510285e-01	1.295483e+00	1.326491e+00	1.354838e+00	1.290083e+00	1.283034e+00	1.355237e+00	1.309818e+00	1.303136e+00	1.325023e+00	1.316548e+00	1.323007e+00	1.328953e+00	1.318849e+00	1.262805e+00	1.277153e+00	1.267967e+00	1.292055e+00	1.199430e+00	1.205251e+00	1.300742e+00	1.278236e+00	1.440789e+00	1.437958e+00	1.442514e+00	1.443923e+00	1.438236e+00	1.143250e+00	1.042421e+00	1.022031e+00	1.147085e+00	8.398214e-01	1.403737e+00	1.165661e+00	7.317542e-01	7.096804e-01	1.277738e+00	1.251563e+00	1.249668e+00	9.531742e-01	7.659454e-01	1.232523e+00	1.265636e+00	1.246165e+00	1.275417e+00	9.055398e-01	6.985734e-01	6.642912e-01	9.194816e-01	1.162985e+00	1.352241e+00	1.317414e+00	1.352424e+00	1.465913e+00	1.615869e+00	1.394300e+00	1.073795e+00	1.271698e+00	1.224638e+00	9.656572e-01	1.031436e+00	8.472617e-01	8.365472e-01	8.313561e-01	1.378666e+00	1.365870e+00	9.641836e-01	1.012405e+00	1.232215e+00	1.298437e+00	1.234016e+00	1.211939e+00	1.086611e+00	1.074053e+00	1.210718e+00	1.179943e+00	1.220093e+00	1.204904e+00	1.166524e+00	1.139836e+00	9.578768e-01	9.282038e-01	1.441008e+00	1.293983e+00	1.297133e+00	1.298243e+00	1.315099e+00	1.360687e+00	1.443722e+00	1.273034e+00	1.245867e+00	1.286289e+00	1.301628e+00	1.287048e+00	1.282520e+00	1.285576e+00	1.279995e+00	1.238859e+00	1.321314e+00	1.315364e+00	1.084268e+00	1.123531e+00	1.213104e+00	1.287884e+00	1.283352e+00	1.260841e+00	1.232913e+00	8.383672e-01	7.868743e-01	8.555791e-01	1.241571e+00	8.058887e-01	1.361576e+00	1.382580e+00	1.307615e+00	1.289440e+00	1.355501e+00	1.372903e+00	1.163049e+00	1.406870e+00	1.411809e+00	1.395712e+00	1.397442e+00	1.280903e+00	1.290111e+00	1.267651e+00	8.357728e-01	8.745750e-01	1.353094e+00	1.268606e+00	1.308335e+00	1.005779e+00	1.039979e+00	1.007410e+00	1.168476e+00	1.196872e+00	1.169352e+00	1.196189e+00	1.270599e+00	1.273202e+00	1.281342e+00	1.273201e+00	1.374115e+00	1.141801e+00	1.181262e+00	9.356448e-01	1.371038e+00	1.381306e+00	1.194180e+00	1.222564e+00	1.385391e+00	1.209349e+00	1.338878e+00	1.338700e+00	1.336463e+00	1.377429e+00	1.388800e+00	1.535345e+00	1.542341e+00	1.482644e+00	1.406581e+00	1.402384e+00	1.330492e+00	1.336159e+00	1.332124e+00	1.329756e+00	1.322150e+00	1.311347e+00	1.255543e+00	1.453695e+00	1.345025e+00	7.438635e-01	9.527086e-01	1.072665e+00	1.132361e+00	1.202906e+00	1.182862e+00	1.245890e+00	1.094820e+00	1.148422e+00	1.390104e+00	1.398513e+00	1.375232e+00	1.608339e+00	1.577168e+00	1.582669e+00	1.281369e+00	1.272645e+00	1.249248e+00	1.252411e+00	7.491655e-01	1.121031e+00	8.906215e-01	8.856214e-01	1.310676e+00	1.331069e+00	1.404566e+00	1.414996e+00	1.406336