# vtk DataFile Version 3.0
vtk output
ASCII
DATASET UNSTRUCTURED_GRID
POINTS 198 double
0.000000e+00	0.000000e+00	0.0	3.395162e-03	3.670542e-03	0.0	7.070898e-03	7.292706e-03	0.0	1.162059e-02	1.016006e-02	0.0	1.643624e-02	1.294455e-02	0.0	2.171752e-02	1.528157e-02	0.0	2.723384e-02	1.758476e-02	0.0	3.306374e-02	1.967000e-02	0.0	3.912779e-02	2.173227e-02	0.0	4.546155e-02	2.367849e-02	0.0	5.204658e-02	2.555853e-02	0.0	5.889246e-02	2.735349e-02	0.0	6.601004e-02	2.900867e-02	0.0	7.337807e-02	3.062721e-02	0.0	8.103733e-02	3.200407e-02	0.0	8.894896e-02	3.333264e-02	0.0	9.712736e-02	3.454156e-02	0.0	1.055636e-01	3.568337e-02	0.0	1.142537e-01	3.680105e-02	0.0	1.231992e-01	3.788708e-02	0.0	1.323967e-01	3.897883e-02	0.0	1.418532e-01	4.001314e-02	0.0	1.515684e-01	4.099476e-02	0.0	1.615359e-01	4.196942e-02	0.0	1.717754e-01	4.269735e-02	0.0	1.822624e-01	4.344288e-02	0.0	1.930077e-01	4.395367e-02	0.0	2.040053e-01	4.428999e-02	0.0	2.152425e-01	4.462939e-02	0.0	2.267201e-01	4.469442e-02	0.0	2.384285e-01	4.476076e-02	0.0	2.503593e-01	4.496957e-02	0.0	2.625059e-01	4.535183e-02	0.0	2.748644e-01	4.574076e-02	0.0	2.873702e-01	4.697157e-02	0.0	3.000654e-01	4.830735e-02	0.0	3.128775e-01	5.011017e-02	0.0	3.257408e-01	5.274269e-02	0.0	3.387681e-01	5.540875e-02	0.0	3.518692e-01	5.846285e-02	0.0	3.650896e-01	6.164779e-02	0.0	3.784672e-01	6.473559e-02	0.0	3.920697e-01	6.735337e-02	0.0	4.057777e-01	6.999145e-02	0.0	4.197253e-01	7.150729e-02	0.0	4.338276e-01	7.245048e-02	0.0	4.479974e-01	7.310607e-02	0.0	4.622266e-01	7.230759e-02	0.0	4.764928e-01	7.150703e-02	0.0	4.907449e-01	7.024954e-02	0.0	5.049871e-01	6.877400e-02	0.0	5.192285e-01	6.737386e-02	0.0	5.334782e-01	6.631987e-02	0.0	5.476910e-01	6.526861e-02	0.0	5.618786e-01	6.494256e-02	0.0	5.760124e-01	6.495146e-02	0.0	5.900653e-01	6.502105e-02	0.0	6.040210e-01	6.534856e-02	0.0	6.178693e-01	6.567355e-02	0.0	6.315967e-01	6.553388e-02	0.0	6.451910e-01	6.518624e-02	0.0	6.586176e-01	6.457234e-02	0.0	6.717801e-01	6.268404e-02	0.0	6.847770e-01	6.081949e-02	0.0	6.974373e-01	5.816276e-02	0.0	7.098180e-01	5.505332e-02	0.0	7.220045e-01	5.197741e-02	0.0	7.338595e-01	4.846396e-02	0.0	7.455111e-01	4.501075e-02	0.0	7.569897e-01	4.175013e-02	0.0	7.682965e-01	3.870932e-02	0.0	7.793805e-01	3.572841e-02	0.0	7.904234e-01	3.362276e-02	0.0	8.012339e-01	3.157555e-02	0.0	8.118726e-01	2.999566e-02	0.0	8.223004e-01	2.865515e-02	0.0	8.324931e-01	2.744110e-02	0.0	8.424519e-01	2.637743e-02	0.0	8.521575e-01	2.530798e-02	0.0	8.615965e-01	2.412106e-02	0.0	8.707861e-01	2.296550e-02	0.0	8.797032e-01	2.166860e-02	0.0	8.883679e-01	2.036868e-02	0.0	8.967798e-01	1.905853e-02	0.0	9.049342e-01	1.769737e-02	0.0	9.128480e-01	1.637638e-02	0.0	9.205134e-01	1.503411e-02	0.0	9.279419e-01	1.372067e-02	0.0	9.351365e-01	1.243413e-02	0.0	9.420989e-01	1.116402e-02	0.0	9.488372e-01	9.934230e-03	0.0	9.553498e-01	8.713700e-03	0.0	9.616468e-01	7.533584e-03	0.0	9.677283e-01	6.371051e-03	0.0	9.736023e-01	5.244187e-03	0.0	9.792704e-01	4.137028e-03	0.0	9.847398e-01	3.061223e-03	0.0	9.900140e-01	2.010309e-03	0.0	9.950975e-01	9.821575e-04	0.0	1.000000e+00	0.000000e+00	0.0	9.950042e-01	2.034732e-04	0.0	9.898194e-01	3.945401e-04	0.0	9.844397e-01	5.374518e-04	0.0	9.788607e-01	6.370165e-04	0.0	9.730781e-01	7.127458e-04	0.0	9.670867e-01	7.317355e-04	0.0	9.608824e-01	7.279331e-04	0.0	9.544607e-01	6.595190e-04	0.0	9.478171e-01	5.746475e-04	0.0	9.409486e-01	3.950142e-04	0.0	9.338496e-01	2.093489e-04	0.0	9.265195e-01	-8.705057e-05	0.0	9.189521e-01	-4.161516e-04	0.0	9.111482e-01	-8.433201e-04	0.0	9.031080e-01	-1.426733e-03	0.0	8.948207e-01	-2.028077e-03	0.0	8.863192e-01	-3.013023e-03	0.0	8.775714e-01	-4.070863e-03	0.0	8.686120e-01	-5.420001e-03	0.0	8.594550e-01	-7.157969e-03	0.0	8.500532e-01	-8.971280e-03	0.0	8.405554e-01	-1.151310e-02	0.0	8.308108e-01	-1.412096e-02	0.0	8.209088e-01	-1.709917e-02	0.0	8.107988e-01	-2.026835e-02	0.0	8.004588e-01	-2.354163e-02	0.0	7.898957e-01	-2.693201e-02	0.0	7.790966e-01	-3.038667e-02	0.0	7.679950e-01	-3.367595e-02	0.0	7.566675e-01	-3.703212e-02	0.0	7.450275e-01	-4.011101e-02	0.0	7.331039e-01	-4.299631e-02	0.0	7.209586e-01	-4.587657e-02	0.0	7.084231e-01	-4.787200e-02	0.0	6.956896e-01	-4.989896e-02	0.0	6.826889e-01	-5.120226e-02	0.0	6.694378e-01	-5.184947e-02	0.0	6.560158e-01	-5.247493e-02	0.0	6.424342e-01	-5.180582e-02	0.0	6.287043e-01	-5.112940e-02	0.0	6.148480e-01	-5.028862e-02	0.0	6.008771e-01	-4.929899e-02	0.0	5.867950e-01	-4.833617e-02	0.0	5.725842e-01	-4.813627e-02	0.0	5.582912e-01	-4.793522e-02	0.0	5.439705e-01	-4.866773e-02	0.0	5.296266e-01	-5.009743e-02	0.0	5.152572e-01	-5.162436e-02	0.0	5.009766e-01	-5.399333e-02	0.0	4.866884e-01	-5.636356e-02	0.0	4.723867e-01	-5.859907e-02	0.0	4.580940e-01	-6.074553e-02	0.0	4.438215e-01	-6.271672e-02	0.0	4.294808e-01	-6.349900e-02	0.0	4.152076e-01	-6.427759e-02	0.0	4.010141e-01	-6.407245e-02	0.0	3.869155e-01	-6.337360e-02	0.0	3.729331e-01	-6.258490e-02	0.0	3.590996e-01	-6.141796e-02	0.0	3.454018e-01	-6.026245e-02	0.0	3.318261e-01	-5.952542e-02	0.0	3.184002e-01	-5.895448e-02	0.0	3.051471e-01	-5.869712e-02	0.0	2.920812e-01	-5.940883e-02	0.0	2.792065e-01	-6.011013e-02	0.0	2.665845e-01	-6.140678e-02	0.0	2.541877e-01	-6.288252e-02	0.0	2.420093e-01	-6.435928e-02	0.0	2.300633e-01	-6.589353e-02	0.0	2.183454e-01	-6.739849e-02	0.0	2.068185e-01	-6.846061e-02	0.0	1.955143e-01	-6.933953e-02	0.0	1.844471e-01	-6.999969e-02	0.0	1.736018e-01	-6.989242e-02	0.0	1.630073e-01	-6.978763e-02	0.0	1.527168e-01	-6.888999e-02	0.0	1.427000e-01	-6.769822e-02	0.0	1.329881e-01	-6.626162e-02	0.0	1.237103e-01	-6.389001e-02	0.0	1.146802e-01	-6.158173e-02	0.0	1.061551e-01	-5.854893e-02	0.0	9.798104e-02	-5.525842e-02	0.0	9.007527e-02	-5.198642e-02	0.0	8.266304e-02	-4.823140e-02	0.0	7.547184e-02	-4.458835e-02	0.0	6.855822e-02	-4.094372e-02	0.0	6.190955e-02	-3.731477e-02	0.0	5.546145e-02	-3.381662e-02	0.0	4.911418e-02	-3.063173e-02	0.0	4.297313e-02	-2.755031e-02	0.0	3.691936e-02	-2.481356e-02	0.0	3.105557e-02	-2.219464e-02	0.0	2.538494e-02	-1.967697e-02	0.0	1.996972e-02	-1.712062e-02	0.0	1.485696e-02	-1.441775e-02	0.0	1.019426e-02	-1.136651e-02	0.0	5.930067e-03	-8.108345e-03	0.0	2.245370e-03	-4.455795e-03	0.0	
CELLS 198	594
2	100	101	2	101	102	2	102	103	2	103	104	2	104	105	2	105	106	2	106	107	2	107	108	2	108	109	2	109	110	2	110	111	2	111	112	2	112	113	2	113	114	2	114	115	2	115	116	2	116	117	2	117	118	2	118	119	2	119	120	2	120	121	2	121	122	2	122	123	2	123	124	2	124	125	2	125	126	2	126	127	2	127	128	2	128	129	2	129	130	2	130	131	2	131	132	2	132	133	2	133	134	2	134	135	2	135	136	2	136	137	2	137	138	2	138	139	2	139	140	2	140	141	2	141	142	2	142	143	2	143	144	2	144	145	2	145	146	2	146	147	2	147	148	2	148	149	2	149	150	2	150	151	2	151	152	2	152	153	2	153	154	2	154	155	2	155	156	2	156	157	2	157	158	2	158	159	2	159	160	2	160	161	2	161	162	2	162	163	2	163	164	2	164	165	2	165	166	2	166	167	2	167	168	2	168	169	2	169	170	2	170	171	2	171	172	2	172	173	2	0	1	2	1	2	2	2	3	2	3	4	2	4	5	2	5	6	2	6	7	2	7	8	2	8	9	2	9	10	2	10	11	2	11	12	2	12	13	2	13	14	2	14	15	2	15	16	2	16	17	2	17	18	2	18	19	2	19	20	2	20	21	2	21	22	2	22	23	2	23	24	2	24	25	2	25	26	2	26	27	2	27	28	2	28	29	2	29	30	2	30	31	2	31	32	2	32	33	2	33	34	2	34	35	2	35	36	2	36	37	2	173	174	2	174	175	2	175	176	2	176	177	2	177	178	2	178	179	2	179	180	2	180	181	2	181	182	2	182	183	2	183	184	2	184	185	2	185	186	2	186	187	2	187	188	2	188	189	2	189	190	2	190	191	2	191	192	2	192	193	2	193	194	2	194	195	2	195	196	2	196	197	2	197	0	2	37	38	2	38	39	2	39	40	2	40	41	2	41	42	2	42	43	2	43	44	2	44	45	2	45	46	2	46	47	2	47	48	2	48	49	2	49	50	2	50	51	2	51	52	2	52	53	2	53	54	2	54	55	2	55	56	2	56	57	2	57	58	2	58	59	2	59	60	2	60	61	2	61	62	2	62	63	2	63	64	2	64	65	2	65	66	2	66	67	2	67	68	2	68	69	2	69	70	2	70	71	2	71	72	2	72	73	2	73	74	2	74	75	2	75	76	2	76	77	2	77	78	2	78	79	2	79	80	2	80	81	2	81	82	2	82	83	2	83	84	2	84	85	2	85	86	2	86	87	2	87	88	2	88	89	2	89	90	2	90	91	2	91	92	2	92	93	2	93	94	2	94	95	2	95	96	2	96	97	2	97	98	2	98	99	2	99	100	
CELL_TYPES 198
3	3	3	3	3	3	3	3	3	3	3	3	3	3	3	3	3	3	3	3	3	3	3	3	3	3	3	3	3	3	3	3	3	3	3	3	3	3	3	3	3	3	3	3	3	3	3	3	3	3	3	3	3	3	3	3	3	3	3	3	3	3	3	3	3	3	3	3	3	3	3	3	3	3	3	3	3	3	3	3	3	3	3	3	3	3	3	3	3	3	3	3	3	3	3	3	3	3	3	3	3	3	3	3	3	3	3	3	3	3	3	3	3	3	3	3	3	3	3	3	3	3	3	3	3	3	3	3	3	3	3	3	3	3	3	3	3	3	3	3	3	3	3	3	3	3	3	3	3	3	3	3	3	3	3	3	3	3	3	3	3	3	3	3	3	3	3	3	3	3	3	3	3	3	3	3	3	3	3	3	3	3	3	3	3	3	3	3	3	3	3	3	3	3	3	3	3	3	
POINT_DATA 198

SCALARS Density double 1
LOOKUP_TABLE default
1.386889e+00	1.068232e+00	1.051693e+00	9.878932e-01	9.633686e-01	9.448987e-01	9.525806e-01	9.502442e-01	9.491081e-01	9.409123e-01	9.278137e-01	9.094438e-01	8.913682e-01	8.644265e-01	8.387409e-01	8.263504e-01	8.162458e-01	8.163322e-01	8.225280e-01	8.307626e-01	8.337335e-01	8.345624e-01	8.568664e-01	9.290997e-01	1.037631e+00	1.090413e+00	1.100807e+00	1.125986e+00	1.151682e+00	1.183789e+00	1.225517e+00	1.254675e+00	1.270799e+00	1.297721e+00	1.307959e+00	1.299765e+00	1.307837e+00	1.283916e+00	1.248655e+00	1.219141e+00	1.169748e+00	1.103950e+00	1.046262e+00	9.605390e-01	8.707755e-01	8.235745e-01	7.434731e-01	6.800575e-01	6.579574e-01	6.359551e-01	6.329834e-01	6.560434e-01	6.798340e-01	7.242657e-01	7.840939e-01	8.108635e-01	8.360714e-01	8.607157e-01	8.421952e-01	8.146459e-01	7.985150e-01	7.259042e-01	6.625665e-01	6.315267e-01	6.305669e-01	7.684397e-01	1.092404e+00	1.193671e+00	1.221730e+00	1.236967e+00	1.248349e+00	1.269439e+00	1.273692e+00	1.268962e+00	1.270981e+00	1.262492e+00	1.254436e+00	1.247642e+00	1.237560e+00	1.235695e+00	1.233699e+00	1.233793e+00	1.239080e+00	1.241110e+00	1.245862e+00	1.251022e+00	1.255430e+00	1.261220e+00	1.265512e+00	1.271066e+00	1.275968e+00	1.280891e+00	1.286574e+00	1.291742e+00	1.297827e+00	1.303857e+00	1.311504e+00	1.321030e+00	1.316528e+00	1.353210e+00	1.449595e+00	1.416262e+00	1.412504e+00	1.418548e+00	1.420379e+00	1.422562e+00	1.424027e+00	1.426939e+00	1.428484e+00	1.431080e+00	1.433865e+00	1.435901e+00	1.441832e+00	1.441683e+00	1.449859e+00	1.452227e+00	1.451335e+00	1.458146e+00	1.450755e+00	1.454834e+00	1.448787e+00	1.432914e+00	1.422735e+00	1.400924e+00	1.381221e+00	1.357998e+00	1.326852e+00	1.301859e+00	1.269458e+00	1.234381e+00	1.207358e+00	1.151375e+00	1.110543e+00	1.066968e+00	1.028574e+00	1.044298e+00	1.045953e+00	1.096304e+00	1.175706e+00	1.216963e+00	1.261319e+00	1.312428e+00	1.335556e+00	1.355585e+00	1.376969e+00	1.362639e+00	1.361307e+00	1.342636e+00	1.302572e+00	1.269238e+00	1.228503e+00	1.153824e+00	1.116923e+00	1.095644e+00	1.093325e+00	1.145029e+00	1.182967e+00	1.223199e+00	1.276827e+00	1.306197e+00	1.325218e+00	1.356279e+00	1.356365e+00	1.348578e+00	1.343348e+00	1.315288e+00	1.291509e+00	1.262275e+00	1.214041e+00	1.182513e+00	1.138905e+00	1.038380e+00	9.384305e-01	8.887500e-01	8.952294e-01	9.409289e-01	9.523168e-01	1.015624e+00	1.073025e+00	1.124207e+00	1.209805e+00	1.246537e+00	1.297499e+00	1.358091e+00	1.392135e+00	1.429049e+00	1.465225e+00	1.486630e+00	1.506185e+00	1.521944e+00	1.529067e+00	1.539792e+00	1.548505e+00	1.563623e+00	1.585810e+00	1.619183e+00	1.627627e+00	1.669079e+00	
VECTORS Momentum double
3.833909e+01	2.492326e+02	0.0	1.913856e+02	1.952569e+02	0.0	2.273433e+02	1.805548e+02	0.0	2.516266e+02	1.520824e+02	0.0	2.670146e+02	1.354502e+02	0.0	2.748093e+02	1.177352e+02	0.0	2.816535e+02	1.089114e+02	0.0	2.853874e+02	9.929446e+01	0.0	2.895644e+02	9.338502e+01	0.0	2.952957e+02	8.737948e+01	0.0	2.976590e+02	8.139082e+01	0.0	2.996355e+02	7.394212e+01	0.0	3.010114e+02	6.805113e+01	0.0	3.015831e+02	6.019237e+01	0.0	3.004960e+02	5.200682e+01	0.0	3.009683e+02	4.717907e+01	0.0	3.007819e+02	4.226746e+01	0.0	3.018966e+02	3.964862e+01	0.0	3.033686e+02	3.785789e+01	0.0	3.049121e+02	3.665125e+01	0.0	3.058234e+02	3.492092e+01	0.0	3.066038e+02	3.211069e+01	0.0	3.092788e+02	3.023805e+01	0.0	3.116483e+02	2.609168e+01	0.0	3.129573e+02	2.271216e+01	0.0	3.135953e+02	1.871180e+01	0.0	3.114500e+02	1.193773e+01	0.0	3.099418e+02	9.405397e+00	0.0	3.071919e+02	5.517966e+00	0.0	3.013187e+02	1.738752e+00	0.0	2.952906e+02	3.599702e+00	0.0	2.914307e+02	7.337534e+00	0.0	2.843766e+02	8.783077e+00	0.0	2.785252e+02	1.820845e+01	0.0	2.784215e+02	2.877407e+01	0.0	2.764973e+02	3.390977e+01	0.0	2.777042e+02	4.826460e+01	0.0	2.830205e+02	5.825485e+01	0.0	2.890991e+02	6.305255e+01	0.0	2.967005e+02	7.029671e+01	0.0	3.055387e+02	7.270727e+01	0.0	3.118130e+02	6.656922e+01	0.0	3.168646e+02	6.109623e+01	0.0	3.198960e+02	4.867228e+01	0.0	3.133517e+02	2.805874e+01	0.0	3.097494e+02	1.798354e+01	0.0	2.975574e+02	-6.034859e-01	0.0	2.827693e+02	-1.544967e+01	0.0	2.788607e+02	-2.052641e+01	0.0	2.731387e+02	-2.648850e+01	0.0	2.719967e+02	-2.792471e+01	0.0	2.787846e+02	-2.432186e+01	0.0	2.845395e+02	-2.160819e+01	0.0	2.944816e+02	-1.511194e+01	0.0	3.072957e+02	-2.777218e+00	0.0	3.104071e+02	2.025798e+00	0.0	3.127244e+02	4.924181e+00	0.0	3.174456e+02	8.191552e+00	0.0	3.144877e+02	3.142645e+00	0.0	3.098885e+02	-5.150398e+00	0.0	3.081020e+02	-1.050580e+01	0.0	2.930969e+02	-2.680337e+01	0.0	2.779598e+02	-4.008333e+01	0.0	2.705876e+02	-4.739208e+01	0.0	2.591144e+02	-5.784591e+01	0.0	2.565645e+02	-6.603496e+01	0.0	2.519913e+02	-6.700162e+01	0.0	2.404383e+02	-6.997587e+01	0.0	2.310372e+02	-6.616379e+01	0.0	2.225022e+02	-6.115245e+01	0.0	2.137452e+02	-5.772499e+01	0.0	2.095157e+02	-4.812245e+01	0.0	2.102187e+02	-3.990605e+01	0.0	2.104656e+02	-3.566742e+01	0.0	2.126686e+02	-2.935780e+01	0.0	2.163535e+02	-2.669542e+01	0.0	2.195871e+02	-2.488839e+01	0.0	2.244702e+02	-2.432742e+01	0.0	2.271080e+02	-2.681851e+01	0.0	2.286349e+02	-2.876078e+01	0.0	2.290111e+02	-3.101531e+01	0.0	2.275770e+02	-3.365796e+01	0.0	2.266186e+02	-3.460073e+01	0.0	2.249628e+02	-3.626659e+01	0.0	2.225162e+02	-3.714614e+01	0.0	2.203010e+02	-3.763969e+01	0.0	2.176956e+02	-3.826799e+01	0.0	2.150674e+02	-3.821384e+01	0.0	2.124907e+02	-3.840830e+01	0.0	2.101767e+02	-3.832925e+01	0.0	2.075533e+02	-3.834084e+01	0.0	2.045175e+02	-3.833608e+01	0.0	2.016903e+02	-3.817259e+01	0.0	1.985276e+02	-3.804011e+01	0.0	1.949295e+02	-3.771568e+01	0.0	1.908896e+02	-3.743467e+01	0.0	1.863964e+02	-3.681690e+01	0.0	1.803089e+02	-3.618904e+01	0.0	1.662832e+02	-3.523278e+01	0.0	2.031605e+02	-4.915929e+00	0.0	2.815930e+02	-1.412919e+01	0.0	2.667659e+02	-8.492120e+00	0.0	2.603986e+02	-5.331587e+00	0.0	2.617388e+02	-3.980014e+00	0.0	2.609451e+02	-2.079487e+00	0.0	2.600899e+02	-3.447243e-01	0.0	2.591663e+02	1.476351e+00	0.0	2.582317e+02	3.012059e+00	0.0	2.571899e+02	5.037782e+00	0.0	2.562662e+02	6.693853e+00	0.0	2.549133e+02	8.512080e+00	0.0	2.534558e+02	1.061728e+01	0.0	2.517220e+02	1.227709e+01	0.0	2.497799e+02	1.598184e+01	0.0	2.480009e+02	1.787576e+01	0.0	2.449401e+02	2.315559e+01	0.0	2.440292e+02	2.892216e+01	0.0	2.429354e+02	3.286706e+01	0.0	2.410033e+02	4.102629e+01	0.0	2.419852e+02	4.606755e+01	0.0	2.414915e+02	5.558257e+01	0.0	2.447845e+02	6.555276e+01	0.0	2.506688e+02	7.112739e+01	0.0	2.553607e+02	7.845511e+01	0.0	2.630266e+02	8.280555e+01	0.0	2.702677e+02	8.629156e+01	0.0	2.773110e+02	8.909770e+01	0.0	2.867530e+02	8.820104e+01	0.0	2.938761e+02	8.704178e+01	0.0	3.016150e+02	8.405689e+01	0.0	3.100761e+02	7.811906e+01	0.0	3.142581e+02	7.540653e+01	0.0	3.227194e+02	6.355687e+01	0.0	3.252033e+02	5.228391e+01	0.0	3.251595e+02	4.258497e+01	0.0	3.309728e+02	2.460417e+01	0.0	3.271650e+02	1.609460e+01	0.0	3.301925e+02	-9.980490e-01	0.0	3.261080e+02	-1.653623e+01	0.0	3.168012e+02	-1.718830e+01	0.0	3.101941e+02	-2.058463e+01	0.0	3.013309e+02	-2.125700e+01	0.0	2.920484e+02	-1.191681e+01	0.0	2.870750e+02	-4.123614e+00	0.0	2.821979e+02	5.008635e+00	0.0	2.798121e+02	2.138891e+01	0.0	2.844708e+02	2.892320e+01	0.0	2.872056e+02	3.870965e+01	0.0	2.942755e+02	4.871766e+01	0.0	3.036669e+02	4.883120e+01	0.0	3.111547e+02	4.759861e+01	0.0	3.164637e+02	4.586353e+01	0.0	3.266054e+02	3.096029e+01	0.0	3.282702e+02	1.797095e+01	0.0	3.283509e+02	6.710729e+00	0.0	3.291261e+02	-1.089179e+01	0.0	3.219830e+02	-1.702398e+01	0.0	3.160833e+02	-2.211730e+01	0.0	3.087290e+02	-2.613824e+01	0.0	2.996694e+02	-2.070446e+01	0.0	2.941386e+02	-1.404686e+01	0.0	2.894182e+02	-9.225252e+00	0.0	2.841453e+02	5.000227e+00	0.0	2.861624e+02	1.558113e+01	0.0	2.887047e+02	2.249213e+01	0.0	2.918502e+02	3.239965e+01	0.0	2.997668e+02	3.590046e+01	0.0	3.054166e+02	3.807743e+01	0.0	3.110791e+02	4.016746e+01	0.0	3.189327e+02	3.455376e+01	0.0	3.219795e+02	2.641160e+01	0.0	3.237941e+02	2.210381e+01	0.0	3.271004e+02	8.408002e+00	0.0	3.224880e+02	-3.321827e+00	0.0	3.242350e+02	-1.600326e+01	0.0	3.290198e+02	-3.434845e+01	0.0	3.249038e+02	-4.313749e+01	0.0	3.283360e+02	-6.634073e+01	0.0	3.218363e+02	-8.250673e+01	0.0	3.149665e+02	-9.667010e+01	0.0	3.065977e+02	-1.171547e+02	0.0	2.928685e+02	-1.193004e+02	0.0	2.808162e+02	-1.289532e+02	0.0	2.637127e+02	-1.336862e+02	0.0	2.489181e+02	-1.284854e+02	0.0	2.356634e+02	-1.265100e+02	0.0	2.217567e+02	-1.208429e+02	0.0	2.108206e+02	-1.101042e+02	0.0	2.024806e+02	-1.016520e+02	0.0	1.948333e+02	-9.296437e+01	0.0	1.887831e+02	-8.469720e+01	0.0	1.820067e+02	-8.096682e+01	0.0	1.709648e+02	-7.793852e+01	0.0	1.537021e+02	-7.653252e+01	0.0	1.255415e+02	-7.350954e+01	0.0	8.245013e+01	-5.729065e+01	0.0	2.109749e+01	-1.532406e+01	0.0	-4.842059e+01	7.191332e+01	0.0	
SCALARS Energy double 1
LOOKUP_TABLE default
3.073114e+05	2.416545e+05	2.395197e+05	2.267357e+05	2.222098e+05	2.184247e+05	2.202529e+05	2.197971e+05	2.197573e+05	2.184454e+05	2.158682e+05	2.121844e+05	2.085663e+05	2.030898e+05	1.977304e+05	1.952472e+05	1.931580e+05	1.932551e+05	1.946071e+05	1.963779e+05	1.970385e+05	1.972518e+05	2.019204e+05	2.165235e+05	2.385766e+05	2.493975e+05	2.513284e+05	2.563811e+05	2.614636e+05	2.676743e+05	2.759322e+05	2.817661e+05	2.846859e+05	2.900008e+05	2.922020e+05	2.903969e+05	2.922967e+05	2.877210e+05	2.808011e+05	2.752780e+05	2.657188e+05	2.525584e+05	2.411118e+05	2.238750e+05	2.050747e+05	1.952995e+05	1.782430e+05	1.643244e+05	1.596607e+05	1.548300e+05	1.541421e+05	1.593229e+05	1.645404e+05	1.742146e+05	1.872452e+05	1.928204e+05	1.980253e+05	2.033920e+05	1.994169e+05	1.935093e+05	1.901689e+05	1.744676e+05	1.606895e+05	1.540238e+05	1.527141e+05	1.796923e+05	2.457905e+05	2.663648e+05	2.716985e+05	2.743989e+05	2.763273e+05	2.804919e+05	2.813488e+05	2.803177e+05	2.808062e+05	2.791620e+05	2.775994e+05	2.764014e+05	2.744149e+05	2.741125e+05	2.737251e+05	2.736890e+05	2.747666e+05	2.751245e+05	2.760140e+05	2.770013e+05	2.778126e+05	2.789135e+05	2.797033e+05	2.807741e+05	2.816949e+05	2.826038e+05	2.836859e+05	2.846467e+05	2.857867e+05	2.869012e+05	2.883457e+05	2.901369e+05	2.886381e+05	2.978178e+05	3.221941e+05	3.143169e+05	3.131772e+05	3.145278e+05	3.148733e+05	3.152908e+05	3.155537e+05	3.161237e+05	3.163996e+05	3.169050e+05	3.174302e+05	3.177928e+05	3.189697e+05	3.188517e+05	3.205089e+05	3.208854e+05	3.206813e+05	3.221024e+05	3.204968e+05	3.214545e+05	3.202399e+05	3.171447e+05	3.153524e+05	3.110825e+05	3.073971e+05	3.029636e+05	2.968763e+05	2.921986e+05	2.858667e+05	2.790347e+05	2.739268e+05	2.626468e+05	2.547499e+05	2.459092e+05	2.379935e+05	2.415352e+05	2.414806e+05	2.519524e+05	2.679195e+05	2.757274e+05	2.844763e+05	2.945466e+05	2.987679e+05	3.026596e+05	3.068749e+05	3.037590e+05	3.037939e+05	3.001009e+05	2.922344e+05	2.858951e+05	2.779359e+05	2.628792e+05	2.559826e+05	2.516948e+05	2.511924e+05	2.618414e+05	2.690937e+05	2.769892e+05	2.876340e+05	2.931310e+05	2.967352e+05	3.029553e+05	3.026485e+05	3.011537e+05	3.002369e+05	2.945993e+05	2.901596e+05	2.844585e+05	2.748545e+05	2.688731e+05	2.600750e+05	2.396749e+05	2.198071e+05	2.094533e+05	2.109568e+05	2.206653e+05	2.226346e+05	2.360316e+05	2.473931e+05	2.575899e+05	2.750798e+05	2.817857e+05	2.918897e+05	3.037116e+05	3.099514e+05	3.170561e+05	3.239679e+05	3.278273e+05	3.315008e+05	3.344240e+05	3.355942e+05	3.376018e+05	3.390666e+05	3.417817e+05	3.458062e+05	3.520263e+05	3.530279e+05	3.626008e+05	
SCALARS Pressure double 1
LOOKUP_TABLE default
1.137549e+05	8.266601e+04	7.977944e+04	7.319340e+04	7.027350e+04	6.845110e+04	6.895518e+04	6.870160e+04	6.839653e+04	6.722013e+04	6.582048e+04	6.392713e+04	6.205738e+04	5.935425e+04	5.691543e+04	5.563678e+04	5.465817e+04	5.458736e+04	5.511638e+04	5.584561e+04	5.608696e+04	5.612541e+04	5.822842e+04	6.555561e+04	7.645317e+04	8.165721e+04	8.288182e+04	8.547364e+04	8.819250e+04	9.172981e+04	9.614060e+04	9.915938e+04	1.011348e+05	1.039934e+05	1.049008e+05	1.042180e+05	1.047690e+05	1.020822e+05	9.829671e+04	9.485900e+04	8.942233e+04	8.260607e+04	7.653847e+04	6.774925e+04	5.929692e+04	5.474169e+04	4.747905e+04	4.214434e+04	4.009840e+04	3.824906e+04	3.803473e+04	3.985502e+04	4.186043e+04	4.567594e+04	5.080953e+04	5.336172e+04	5.581002e+04	5.792542e+04	5.627758e+04	5.382111e+04	5.226409e+04	4.592045e+04	4.046889e+04	3.771073e+04	3.872910e+04	5.360976e+04	8.586862e+04	9.603932e+04	9.922464e+04	1.011503e+05	1.026775e+05	1.049160e+05	1.053503e+05	1.049452e+05	1.050698e+05	1.041366e+05	1.032533e+05	1.023886e+05	1.013143e+05	1.010505e+05	1.008318e+05	1.008965e+05	1.014240e+05	1.016825e+05	1.022356e+05	1.028152e+05	1.033419e+05	1.039990e+05	1.045124e+05	1.051277e+05	1.056953e+05	1.062811e+05	1.069242e+05	1.075323e+05	1.082399e+05	1.089561e+05	1.098333e+05	1.109344e+05	1.110662e+05	1.130233e+05	1.179099e+05	1.156670e+05	1.156658e+05	1.161501e+05	1.163608e+05	1.166057e+05	1.167877e+05	1.171018e+05	1.172952e+05	1.175777e+05	1.178983e+05	1.181538e+05	1.187776e+05	1.188501e+05	1.196753e+05	1.200177e+05	1.199510e+05	1.205979e+05	1.199594e+05	1.202401e+05	1.196188e+05	1.178948e+05	1.165968e+05	1.142448e+05	1.119483e+05	1.093311e+05	1.059624e+05	1.030520e+05	9.954676e+04	9.572945e+04	9.263297e+04	8.691617e+04	8.241629e+04	7.802741e+04	7.428647e+04	7.551887e+04	7.607583e+04	8.089085e+04	8.903063e+04	9.374840e+04	9.846624e+04	1.039128e+05	1.067133e+05	1.089024e+05	1.111795e+05	1.099448e+05	1.095056e+05	1.075298e+05	1.032329e+05	9.945177e+04	9.504368e+04	8.742752e+04	8.312050e+04	8.094812e+04	8.074644e+04	8.579510e+04	9.006083e+04	9.438006e+04	1.000168e+05	1.034366e+05	1.056072e+05	1.088177e+05	1.091506e+05	1.082810e+05	1.076101e+05	1.047283e+05	1.019487e+05	9.877412e+04	9.373417e+04	9.014357e+04	8.570213e+04	7.558235e+04	6.510488e+04	6.037551e+04	6.083916e+04	6.500530e+04	6.649341e+04	7.231674e+04	7.838254e+04	8.372475e+04	9.222285e+04	9.666908e+04	1.020373e+05	1.086112e+05	1.127074e+05	1.168099e+05	1.208815e+05	1.235206e+05	1.257842e+05	1.276455e+05	1.286378e+05	1.298865e+05	1.310670e+05	1.329417e+05	1.356533e+05	1.395654e+05	1.411276e+05	1.441397e+05	
SCALARS Temperature double 1
LOOKUP_TABLE default
2.857318e+02	2.695825e+02	2.642605e+02	2.581026e+02	2.541145e+02	2.523629e+02	2.521712e+02	2.518616e+02	2.510434e+02	2.488746e+02	2.471329e+02	2.448723e+02	2.425307e+02	2.391961e+02	2.363919e+02	2.345460e+02	2.332730e+02	2.329461e+02	2.334320e+02	2.341760e+02	2.343500e+02	2.342778e+02	2.367294e+02	2.457977e+02	2.566746e+02	2.608758e+02	2.622881e+02	2.644415e+02	2.667654e+02	2.699396e+02	2.732863e+02	2.753169e+02	2.772388e+02	2.791612e+02	2.793927e+02	2.793241e+02	2.790676e+02	2.769770e+02	2.742375e+02	2.710535e+02	2.663079e+02	2.606712e+02	2.548411e+02	2.457083e+02	2.372227e+02	2.315505e+02	2.224678e+02	2.158858e+02	2.123047e+02	2.095196e+02	2.093237e+02	2.116317e+02	2.145019e+02	2.196949e+02	2.257394e+02	2.292516e+02	2.325408e+02	2.344444e+02	2.327840e+02	2.301517e+02	2.280083e+02	2.203724e+02	2.127758e+02	2.080193e+02	2.139620e+02	2.430325e+02	2.738304e+02	2.802818e+02	2.829271e+02	2.848652e+02	2.865296e+02	2.879122e+02	2.881387e+02	2.881007e+02	2.879846e+02	2.873460e+02	2.867385e+02	2.858854e+02	2.851903e+02	2.848770e+02	2.847206e+02	2.848814e+02	2.851490e+02	2.854081e+02	2.858662e+02	2.863007e+02	2.867573e+02	2.872558e+02	2.876945e+02	2.881240e+02	2.885666e+02	2.890506e+02	2.895154e+02	2.899971e+02	2.905366e+02	2.911066e+02	2.917391e+02	2.925389e+02	2.938882e+02	2.909600e+02	2.833569e+02	2.845092e+02	2.852632e+02	2.852371e+02	2.853860e+02	2.855481e+02	2.856995e+02	2.858832e+02	2.860454e+02	2.862144e+02	2.864371e+02	2.866509e+02	2.869790e+02	2.871840e+02	2.875471e+02	2.878997e+02	2.879165e+02	2.881171e+02	2.880519e+02	2.879163e+02	2.876242e+02	2.866190e+02	2.854914e+02	2.840876e+02	2.823480e+02	2.804626e+02	2.782016e+02	2.757547e+02	2.731739e+02	2.701634e+02	2.672759e+02	2.629748e+02	2.585283e+02	2.547570e+02	2.515965e+02	2.519192e+02	2.533756e+02	2.570388e+02	2.637977e+02	2.683594e+02	2.719523e+02	2.758188e+02	2.783473e+02	2.798603e+02	2.812749e+02	2.810763e+02	2.802272e+02	2.789980e+02	2.760873e+02	2.729604e+02	2.695115e+02	2.639604e+02	2.592480e+02	2.573757e+02	2.572790e+02	2.610214e+02	2.652123e+02	2.687902e+02	2.728798e+02	2.758647e+02	2.776110e+02	2.794993e+02	2.803365e+02	2.797091e+02	2.790582e+02	2.773792e+02	2.749886e+02	2.725961e+02	2.689645e+02	2.655579e+02	2.621407e+02	2.535680e+02	2.416806e+02	2.366528e+02	2.367441e+02	2.406702e+02	2.432358e+02	2.480483e+02	2.544718e+02	2.594406e+02	2.655544e+02	2.701548e+02	2.739569e+02	2.785969e+02	2.820341e+02	2.847496e+02	2.873993e+02	2.894457e+02	2.909231e+02	2.921711e+02	2.930709e+02	2.938545e+02	2.948567e+02	2.961827e+02	2.979954e+02	3.002702e+02	3.020559e+02	3.008410e+02	
SCALARS Mach double 1
LOOKUP_TABLE default
5.365541e-01	7.775996e-01	8.470735e-01	9.240917e-01	9.725311e-01	9.935220e-01	9.958095e-01	9.995007e-01	1.009235e+00	1.034893e+00	1.055362e+00	1.081771e+00	1.108965e+00	1.147454e+00	1.179654e+00	1.200785e+00	1.215335e+00	1.219068e+00	1.213519e+00	1.205016e+00	1.203026e+00	1.203852e+00	1.175785e+00	1.070980e+00	9.415482e-01	8.897836e-01	8.720834e-01	8.447601e-01	8.147676e-01	7.728174e-01	7.271179e-01	6.985160e-01	6.707306e-01	6.421448e-01	6.386444e-01	6.396831e-01	6.435575e-01	6.745605e-01	7.138107e-01	7.577881e-01	8.207178e-01	8.923348e-01	9.637759e-01	1.072024e+00	1.170127e+00	1.234999e+00	1.338517e+00	1.413752e+00	1.454903e+00	1.487060e+00	1.489327e+00	1.462660e+00	1.429631e+00	1.370164e+00	1.301229e+00	1.261212e+00	1.223697e+00	1.201947e+00	1.220920e+00	1.250952e+00	1.275380e+00	1.362426e+00	1.449479e+00	1.504446e+00	1.435835e+00	1.103149e+00	7.195251e-01	6.250690e-01	5.833599e-01	5.513410e-01	5.226530e-01	4.978396e-01	4.936790e-01	4.943791e-01	4.965122e-01	5.081186e-01	5.189654e-01	5.338998e-01	5.458296e-01	5.511412e-01	5.537782e-01	5.510662e-01	5.465317e-01	5.421129e-01	5.342324e-01	5.266711e-01	5.186324e-01	5.097415e-01	5.018108e-01	4.939489e-01	4.857406e-01	4.766297e-01	4.677436e-01	4.583838e-01	4.477051e-01	4.361860e-01	4.230896e-01	4.060125e-01	3.756771e-01	4.391730e-01	5.763755e-01	5.573265e-01	5.445883e-01	5.450327e-01	5.424920e-01	5.397149e-01	5.371107e-01	5.339379e-01	5.311233e-01	5.281790e-01	5.242791e-01	5.205144e-01	5.146932e-01	5.110295e-01	5.044863e-01	4.980671e-01	4.977612e-01	4.940774e-01	4.952768e-01	4.977646e-01	5.030891e-01	5.210775e-01	5.406875e-01	5.643529e-01	5.926739e-01	6.222830e-01	6.565210e-01	6.922504e-01	7.286806e-01	7.698107e-01	8.081021e-01	8.634153e-01	9.188612e-01	9.647907e-01	1.002658e+00	9.988149e-01	9.814050e-01	9.371086e-01	8.529742e-01	7.938537e-01	7.455341e-01	6.913299e-01	6.543524e-01	6.315300e-01	6.096544e-01	6.127593e-01	6.259084e-01	6.446064e-01	6.874664e-01	7.316431e-01	7.785483e-01	8.509020e-01	9.099893e-01	9.329944e-01	9.341756e-01	8.879662e-01	8.348737e-01	7.881508e-01	7.327602e-01	6.906706e-01	6.652613e-01	6.370272e-01	6.242266e-01	6.338366e-01	6.436994e-01	6.686724e-01	7.031893e-01	7.366810e-01	7.858356e-01	8.304217e-01	8.739386e-01	9.790978e-01	1.118801e+00	1.176664e+00	1.175616e+00	1.130470e+00	1.100792e+00	1.044618e+00	9.682294e-01	9.076092e-01	8.304665e-01	7.699268e-01	7.177518e-01	6.506251e-01	5.976781e-01	5.532905e-01	5.071576e-01	4.690847e-01	4.399221e-01	4.139406e-01	3.942980e-01	3.764610e-01	3.524855e-01	3.182837e-01	2.650925e-01	1.784985e-01	4.598169e-02	1.493831e-01	
SCALARS Pressure_Coefficient double 1
LOOKUP_TABLE default