# vtk DataFile Version 3.0
vtk output
ASCII
DATASET UNSTRUCTURED_GRID
POINTS 1860 double
1.000000e+02	0.000000e+00	0.0	9.917900e+01	1.278772e+01	0.0	9.672949e+01	2.536546e+01	0.0	9.269168e+01	3.752670e+01	0.0	8.713187e+01	4.907176e+01	0.0	8.014136e+01	5.981105e+01	0.0	7.183494e+01	6.956826e+01	0.0	6.234898e+01	7.818315e+01	0.0	5.183926e+01	8.551428e+01	0.0	4.047833e+01	9.144126e+01	0.0	2.845276e+01	9.586679e+01	0.0	1.595999e+01	9.871818e+01	0.0	3.205158e+00	9.994862e+01	0.0	-9.602303e+00	9.953791e+01	0.0	-2.225209e+01	9.749279e+01	0.0	-3.453651e+01	9.384684e+01	0.0	-4.625383e+01	8.865993e+01	0.0	-5.721167e+01	8.201723e+01	0.0	-6.723009e+01	7.402780e+01	0.0	-7.614460e+01	6.482284e+01	0.0	-8.380881e+01	5.455349e+01	0.0	-9.009689e+01	4.338837e+01	0.0	-9.490557e+01	3.151082e+01	0.0	-9.815592e+01	1.911586e+01	0.0	-9.979454e+01	6.407022e+00	0.0	-9.979454e+01	-6.407022e+00	0.0	-9.815592e+01	-1.911586e+01	0.0	-9.490557e+01	-3.151082e+01	0.0	-9.009689e+01	-4.338837e+01	0.0	-8.380881e+01	-5.455349e+01	0.0	-7.614460e+01	-6.482284e+01	0.0	-6.723009e+01	-7.402780e+01	0.0	-5.721167e+01	-8.201723e+01	0.0	-4.625383e+01	-8.865993e+01	0.0	-3.453651e+01	-9.384684e+01	0.0	-2.225209e+01	-9.749279e+01	0.0	-9.602303e+00	-9.953791e+01	0.0	3.205158e+00	-9.994862e+01	0.0	1.595999e+01	-9.871818e+01	0.0	2.845276e+01	-9.586679e+01	0.0	4.047833e+01	-9.144126e+01	0.0	5.183926e+01	-8.551428e+01	0.0	6.234898e+01	-7.818315e+01	0.0	7.183494e+01	-6.956826e+01	0.0	8.014136e+01	-5.981105e+01	0.0	8.713187e+01	-4.907176e+01	0.0	9.269168e+01	-3.752670e+01	0.0	9.672949e+01	-2.536546e+01	0.0	9.917900e+01	-1.278772e+01	0.0	0.000000e+00	0.000000e+00	0.0	3.107298e-03	3.917231e-03	0.0	6.344335e-03	7.965747e-03	0.0	1.083859e-02	1.092012e-02	0.0	1.553842e-02	1.390467e-02	0.0	2.086988e-02	1.612752e-02	0.0	2.641630e-02	1.836272e-02	0.0	3.231280e-02	2.025688e-02	0.0	3.843698e-02	2.213919e-02	0.0	4.484948e-02	2.381711e-02	0.0	5.152068e-02	2.536423e-02	0.0	5.848061e-02	2.666498e-02	0.0	6.572798e-02	2.758415e-02	0.0	7.324235e-02	2.829316e-02	0.0	8.102691e-02	2.845410e-02	0.0	8.905056e-02	2.870117e-02	0.0	9.731334e-02	2.910596e-02	0.0	1.057577e-01	3.014678e-02	0.0	1.144164e-01	3.152800e-02	0.0	1.231398e-01	3.376280e-02	0.0	1.320418e-01	3.634712e-02	0.0	1.411275e-01	3.918720e-02	0.0	1.503871e-01	4.231448e-02	0.0	1.598848e-01	4.552222e-02	0.0	1.697280e-01	4.846929e-02	0.0	1.798164e-01	5.146615e-02	0.0	1.902245e-01	5.419129e-02	0.0	2.010430e-01	5.625999e-02	0.0	2.120975e-01	5.837383e-02	0.0	2.235099e-01	5.958828e-02	0.0	2.351980e-01	6.048263e-02	0.0	2.471170e-01	6.127401e-02	0.0	2.592815e-01	6.154673e-02	0.0	2.716585e-01	6.182420e-02	0.0	2.842397e-01	6.213878e-02	0.0	2.970172e-01	6.247577e-02	0.0	3.099785e-01	6.289336e-02	0.0	3.230927e-01	6.383256e-02	0.0	3.363741e-01	6.478375e-02	0.0	3.497894e-01	6.600572e-02	0.0	3.633350e-01	6.740700e-02	0.0	3.770126e-01	6.882759e-02	0.0	3.908049e-01	7.031292e-02	0.0	4.047043e-01	7.180979e-02	0.0	4.187147e-01	7.313978e-02	0.0	4.328171e-01	7.435446e-02	0.0	4.469892e-01	7.551764e-02	0.0	4.612481e-01	7.614578e-02	0.0	4.755442e-01	7.677557e-02	0.0	4.898702e-01	7.689504e-02	0.0	5.042085e-01	7.668965e-02	0.0	5.185321e-01	7.634563e-02	0.0	5.327850e-01	7.506876e-02	0.0	5.470008e-01	7.379522e-02	0.0	5.610760e-01	7.183481e-02	0.0	5.750344e-01	6.948660e-02	0.0	5.889028e-01	6.709485e-02	0.0	6.025913e-01	6.425540e-02	0.0	6.161741e-01	6.143784e-02	0.0	6.296524e-01	5.871218e-02	0.0	6.430108e-01	5.606666e-02	0.0	6.562265e-01	5.344939e-02	0.0	6.694088e-01	5.157124e-02	0.0	6.824257e-01	4.972195e-02	0.0	6.953006e-01	4.819394e-02	0.0	7.080322e-01	4.706153e-02	0.0	7.205679e-01	4.594654e-02	0.0	7.329149e-01	4.504391e-02	0.0	7.450514e-01	4.417546e-02	0.0	7.569583e-01	4.319677e-02	0.0	7.686266e-01	4.207311e-02	0.0	7.800613e-01	4.094460e-02	0.0	7.911898e-01	3.926333e-02	0.0	8.020807e-01	3.761796e-02	0.0	8.126748e-01	3.568457e-02	0.0	8.230084e-01	3.369079e-02	0.0	8.330822e-01	3.166792e-02	0.0	8.428956e-01	2.961954e-02	0.0	8.524672e-01	2.764473e-02	0.0	8.618084e-01	2.580067e-02	0.0	8.709025e-01	2.400538e-02	0.0	8.797685e-01	2.235568e-02	0.0	8.883925e-01	2.077204e-02	0.0	8.967753e-01	1.925260e-02	0.0	9.049219e-01	1.781364e-02	0.0	9.128278e-01	1.641721e-02	0.0	9.204953e-01	1.506113e-02	0.0	9.279276e-01	1.374630e-02	0.0	9.351259e-01	1.246037e-02	0.0	9.420922e-01	1.119407e-02	0.0	9.488340e-01	9.968047e-03	0.0	9.553498e-01	8.751270e-03	0.0	9.616495e-01	7.574835e-03	0.0	9.677330e-01	6.414140e-03	0.0	9.736087e-01	5.288809e-03	0.0	9.792773e-01	4.178913e-03	0.0	9.847466e-01	3.098621e-03	0.0	9.900197e-01	2.039869e-03	0.0	9.951010e-01	9.995823e-04	0.0	1.000000e+00	0.000000e+00	0.0	9.950056e-01	2.325012e-04	0.0	9.898222e-01	4.223423e-04	0.0	9.844454e-01	5.614951e-04	0.0	9.788709e-01	6.571590e-04	0.0	9.730944e-01	7.290324e-04	0.0	9.671111e-01	7.444683e-04	0.0	9.609168e-01	7.376495e-04	0.0	9.545072e-01	6.663258e-04	0.0	9.478779e-01	5.794943e-04	0.0	9.410261e-01	3.977538e-04	0.0	9.339461e-01	2.099597e-04	0.0	9.266374e-01	-8.190199e-05	0.0	9.190940e-01	-4.068369e-04	0.0	9.113142e-01	-7.886841e-04	0.0	9.032968e-01	-1.265328e-03	0.0	8.950351e-01	-1.756498e-03	0.0	8.865349e-01	-2.382502e-03	0.0	8.777875e-01	-3.045272e-03	0.0	8.687958e-01	-3.791381e-03	0.0	8.595613e-01	-4.653966e-03	0.0	8.500766e-01	-5.547647e-03	0.0	8.403621e-01	-6.670722e-03	0.0	8.303975e-01	-7.822721e-03	0.0	8.202149e-01	-9.241910e-03	0.0	8.097949e-01	-1.076767e-02	0.0	7.991628e-01	-1.252579e-02	0.0	7.883198e-01	-1.450598e-02	0.0	7.772554e-01	-1.660643e-02	0.0	7.660179e-01	-1.904759e-02	0.0	7.545540e-01	-2.153794e-02	0.0	7.428851e-01	-2.414899e-02	0.0	7.310067e-01	-2.683048e-02	0.0	7.189070e-01	-2.949627e-02	0.0	7.065605e-01	-3.198987e-02	0.0	6.940208e-01	-3.452249e-02	0.0	6.812227e-01	-3.667201e-02	0.0	6.682093e-01	-3.862677e-02	0.0	6.550204e-01	-4.052974e-02	0.0	6.415901e-01	-4.174106e-02	0.0	6.280147e-01	-4.296547e-02	0.0	6.142848e-01	-4.390011e-02	0.0	6.004181e-01	-4.461735e-02	0.0	5.864429e-01	-4.532495e-02	0.0	5.723642e-01	-4.583010e-02	0.0	5.582050e-01	-4.633814e-02	0.0	5.439807e-01	-4.688592e-02	0.0	5.297057e-01	-4.746324e-02	0.0	5.153945e-01	-4.806590e-02	0.0	5.010729e-01	-4.890974e-02	0.0	4.867439e-01	-4.975401e-02	0.0	4.724418e-01	-5.086099e-02	0.0	4.581747e-01	-5.213682e-02	0.0	4.439524e-01	-5.347882e-02	0.0	4.298391e-01	-5.533407e-02	0.0	4.157915e-01	-5.718065e-02	0.0	4.018572e-01	-5.924555e-02	0.0	3.880369e-01	-6.143859e-02	0.0	3.743199e-01	-6.359237e-02	0.0	3.606922e-01	-6.552591e-02	0.0	3.471969e-01	-6.744067e-02	0.0	3.337912e-01	-6.883590e-02	0.0	3.205029e-01	-6.985705e-02	0.0	3.073796e-01	-7.077503e-02	0.0	2.944015e-01	-7.050246e-02	0.0	2.816114e-01	-7.023384e-02	0.0	2.690439e-01	-6.950068e-02	0.0	2.567015e-01	-6.841104e-02	0.0	2.445719e-01	-6.733395e-02	0.0	2.326837e-01	-6.604892e-02	0.0	2.210204e-01	-6.478819e-02	0.0	2.095726e-01	-6.371038e-02	0.0	1.983446e-01	-6.282256e-02	0.0	1.873565e-01	-6.195371e-02	0.0	1.765962e-01	-6.133731e-02	0.0	1.660815e-01	-6.074908e-02	0.0	1.558241e-01	-6.005551e-02	0.0	1.458287e-01	-5.921063e-02	0.0	1.360843e-01	-5.838697e-02	0.0	1.266920e-01	-5.681477e-02	0.0	1.175605e-01	-5.519210e-02	0.0	1.087786e-01	-5.319716e-02	0.0	1.004091e-01	-5.056881e-02	0.0	9.227730e-02	-4.801508e-02	0.0	8.460461e-02	-4.492629e-02	0.0	7.720321e-02	-4.180785e-02	0.0	7.007143e-02	-3.868001e-02	0.0	6.326337e-02	-3.541524e-02	0.0	5.666787e-02	-3.225240e-02	0.0	5.027255e-02	-2.920906e-02	0.0	4.408226e-02	-2.626618e-02	0.0	3.806479e-02	-2.348329e-02	0.0	3.223559e-02	-2.081720e-02	0.0	2.661167e-02	-1.822075e-02	0.0	2.119132e-02	-1.568778e-02	0.0	1.603710e-02	-1.307865e-02	0.0	1.116941e-02	-1.036812e-02	0.0	6.600913e-03	-7.537196e-03	0.0	2.618398e-03	-4.214082e-03	0.0	1.186535e-01	7.325654e-02	0.0	1.364494e-01	8.758058e-02	0.0	1.124954e-01	9.756225e-02	0.0	8.688563e+01	2.595350e+01	0.0	8.364601e+01	1.757696e+01	0.0	9.087721e+01	1.806889e+01	0.0	7.552263e+01	-1.268383e+01	0.0	7.563308e+01	-2.497106e+01	0.0	8.697589e+01	-1.790115e+01	0.0	8.594820e+01	-4.741834e+00	0.0	2.709492e+01	2.449409e+01	0.0	3.801130e+01	2.780673e+01	0.0	3.053784e+01	3.536229e+01	0.0	8.125353e+01	3.515878e+01	0.0	6.846818e+01	3.431117e+01	0.0	7.539613e+01	2.351032e+01	0.0	6.884154e+01	-3.545878e+01	0.0	7.549892e+01	-4.348389e+01	0.0	8.114355e+01	-3.643369e+01	0.0	8.663474e+01	-2.843961e+01	0.0	4.949744e+01	2.981928e+01	0.0	5.898823e+01	3.020713e+01	0.0	5.665430e+01	3.973075e+01	0.0	7.216051e+01	-5.286994e+01	0.0	6.285893e+01	-5.054049e+01	0.0	6.278204e+01	-5.827053e+01	0.0	6.913590e+01	6.001425e+01	0.0	7.317832e+01	5.137270e+01	0.0	6.018081e+01	6.513913e+01	0.0	4.421611e+01	-6.344618e+01	0.0	4.495969e+01	-7.452123e+01	0.0	5.384689e+01	-7.210970e+01	0.0	6.754930e+01	-4.481174e+01	0.0	4.879670e+01	7.200552e+01	0.0	3.672404e+01	5.546236e+01	0.0	3.048676e+01	6.315538e+01	0.0	2.657317e+01	5.376143e+01	0.0	5.339339e+01	-5.341206e+01	0.0	5.537359e+01	-6.312494e+01	0.0	2.441508e+01	8.146836e+01	0.0	2.430922e+01	7.255873e+01	0.0	3.121746e+01	7.866805e+01	0.0	3.726107e+01	-7.163417e+01	0.0	2.786893e+01	-7.535807e+01	0.0	3.853321e+01	-8.060762e+01	0.0	-4.073403e+00	4.766552e+01	0.0	5.431982e+00	4.893739e+01	0.0	-1.232019e+00	5.650132e+01	0.0	2.066724e+01	8.916721e+01	0.0	1.440268e+01	8.051684e+01	0.0	8.335652e-01	-2.868362e-02	0.0	8.368864e-01	-1.657462e-02	0.0	8.283966e-01	-1.925369e-02	0.0	8.715550e-01	-9.222237e-03	0.0	8.775089e-01	-1.289124e-02	0.0	1.480655e-01	1.411014e-01	0.0	1.014579e-01	1.349825e-01	0.0	1.361524e-01	1.122863e-01	0.0	4.150909e-01	8.280258e-02	0.0	4.066966e-01	8.618840e-02	0.0	3.817448e-01	8.041958e-02	0.0	3.854842e-01	9.372290e-02	0.0	3.732744e-01	8.885569e-02	0.0	4.498003e-01	-6.389158e-02	0.0	4.390080e-01	-6.253309e-02	0.0	4.417270e-01	-7.095205e-02	0.0	9.573218e-01	-1.082279e-02	0.0	9.601007e-01	-6.401668e-03	0.0	9.551303e-01	-5.404489e-03	0.0	9.108010e-01	2.919958e-02	0.0	9.160618e-01	2.182459e-02	0.0	9.196948e-01	2.796781e-02	0.0	9.378454e-01	-7.994883e-03	0.0	9.436776e-01	-5.211887e-03	0.0	9.379067e-01	-3.735345e-03	0.0	1.181832e-01	-6.198864e-02	0.0	2.295456e-01	-2.358843e-01	0.0	1.965687e-01	-1.85
[...]
POINT_DATA 1860

SCALARS Density double 1
LOOKUP_TABLE default
1.291678e+00	1.291735e+00	1.292063e+00	1.292169e+00	1.292086e+00	1.292028e+00	1.291989e+00	1.291927e+00	1.291856e+00	1.291792e+00	1.291744e+00	1.291717e+00	1.291726e+00	1.291781e+00	1.291871e+00	1.291963e+00	1.292048e+00	1.292113e+00	1.292164e+00	1.292203e+00	1.292229e+00	1.292252e+00	1.292266e+00	1.292280e+00	1.292291e+00	1.292302e+00	1.292315e+00	1.292329e+00	1.292345e+00	1.292368e+00	1.292397e+00	1.292433e+00	1.292484e+00	1.292544e+00	1.292617e+00	1.292699e+00	1.292788e+00	1.292853e+00	1.292867e+00	1.292840e+00	1.292782e+00	1.292712e+00	1.292635e+00	1.292557e+00	1.292487e+00	1.292428e+00	1.292429e+00	1.292351e+00	1.292010e+00	1.527245e+00	1.161849e+00	1.095402e+00	9.870920e-01	9.321924e-01	8.788168e-01	8.845510e-01	8.868615e-01	8.926480e-01	8.641852e-01	8.286144e-01	8.000787e-01	8.516903e-01	1.018278e+00	1.186608e+00	1.259312e+00	1.300073e+00	1.319267e+00	1.325337e+00	1.314532e+00	1.281041e+00	1.251409e+00	1.213347e+00	1.154016e+00	1.101922e+00	1.052770e+00	9.694130e-01	9.127733e-01	8.505743e-01	7.801958e-01	7.534550e-01	7.262033e-01	7.017916e-01	7.080118e-01	7.183574e-01	7.300354e-01	7.594968e-01	8.166688e-01	9.368645e-01	1.099056e+00	1.135157e+00	1.124637e+00	1.101113e+00	1.071142e+00	1.041440e+00	1.017159e+00	9.726651e-01	9.344069e-01	8.996289e-01	8.553563e-01	8.288153e-01	7.749158e-01	7.279211e-01	6.966964e-01	6.507934e-01	6.306849e-01	6.066306e-01	5.834219e-01	6.090569e-01	7.528576e-01	1.063895e+00	1.196379e+00	1.208739e+00	1.198153e+00	1.204402e+00	1.195273e+00	1.184813e+00	1.177554e+00	1.161639e+00	1.148871e+00	1.144435e+00	1.132810e+00	1.137552e+00	1.153537e+00	1.162245e+00	1.179734e+00	1.193489e+00	1.206615e+00	1.219810e+00	1.227095e+00	1.233568e+00	1.239276e+00	1.241699e+00	1.246011e+00	1.248807e+00	1.251180e+00	1.254349e+00	1.257558e+00	1.260486e+00	1.264488e+00	1.268054e+00	1.272334e+00	1.277083e+00	1.281721e+00	1.286921e+00	1.293039e+00	1.299529e+00	1.311291e+00	1.304697e+00	1.339168e+00	1.432216e+00	1.411664e+00	1.404907e+00	1.408894e+00	1.409467e+00	1.410123e+00	1.410492e+00	1.411993e+00	1.411990e+00	1.412499e+00	1.413445e+00	1.411645e+00	1.413334e+00	1.411584e+00	1.412342e+00	1.412351e+00	1.410385e+00	1.411969e+00	1.409988e+00	1.412387e+00	1.411532e+00	1.411305e+00	1.411037e+00	1.407641e+00	1.406378e+00	1.398295e+00	1.394476e+00	1.383307e+00	1.366410e+00	1.352378e+00	1.332246e+00	1.307871e+00	1.289880e+00	1.262965e+00	1.238467e+00	1.229737e+00	1.202416e+00	1.199093e+00	1.208328e+00	1.209493e+00	1.225812e+00	1.235825e+00	1.247998e+00	1.265012e+00	1.276155e+00	1.285694e+00	1.298115e+00	1.303794e+00	1.309581e+00	1.315133e+00	1.312407e+00	1.318698e+00	1.313365e+00	1.299470e+00	1.289298e+00	1.264445e+00	1.232191e+00	1.203734e+00	1.162215e+00	1.110067e+00	1.031968e+00	9.484887e-01	9.641608e-01	1.019601e+00	1.051606e+00	1.106921e+00	1.144249e+00	1.176499e+00	1.216304e+00	1.241374e+00	1.248480e+00	1.256423e+00	1.255431e+00	1.234260e+00	1.213648e+00	1.197449e+00	1.150364e+00	1.134757e+00	1.145101e+00	1.135379e+00	1.182489e+00	1.221175e+00	1.259431e+00	1.318662e+00	1.350528e+00	1.389022e+00	1.426475e+00	1.451908e+00	1.475590e+00	1.494882e+00	1.509919e+00	1.524868e+00	1.539368e+00	1.554139e+00	1.576266e+00	1.601446e+00	1.610425e+00	1.703303e+00	1.261086e+00	1.220155e+00	1.234945e+00	1.292084e+00	1.291972e+00	1.291956e+00	1.292183e+00	1.292366e+00	1.292239e+00	1.291896e+00	1.291645e+00	1.291844e+00	1.291664e+00	1.292094e+00	1.292084e+00	1.292088e+00	1.292447e+00	1.292437e+00	1.292396e+00	1.292363e+00	1.291980e+00	1.292025e+00	1.291957e+00	1.292491e+00	1.292531e+00	1.292565e+00	1.291985e+00	1.292009e+00	1.291930e+00	1.292724e+00	1.292738e+00	1.292668e+00	1.292475e+00	1.291844e+00	1.291735e+00	1.291670e+00	1.291604e+00	1.292610e+00	1.292630e+00	1.291678e+00	1.291642e+00	1.291716e+00	1.292801e+00	1.292869e+00	1.292794e+00	1.291171e+00	1.291212e+00	1.291339e+00	1.291693e+00	1.291628e+00	1.400431e+00	1.406710e+00	1.404709e+00	1.408988e+00	1.408174e+00	1.175843e+00	1.200179e+00	1.202109e+00	1.055743e+00	1.072452e+00	1.112233e+00	1.111390e+00	1.131117e+00	1.309525e+00	1.304903e+00	1.301795e+00	1.406438e+00	1.407842e+00	1.408970e+00	1.252895e+00	1.253893e+00	1.256659e+00	1.409474e+00	1.410079e+00	1.411307e+00	1.170650e+00	1.250908e+00	1.254591e+00	1.278650e+00	1.345539e+00	1.358151e+00	1.329924e+00	1.346121e+00	1.332286e+00	1.352496e+00	1.364424e+00	1.325305e+00	1.311950e+00	1.332748e+00	1.078550e+00	1.114661e+00	1.136817e+00	1.002399e+00	1.032634e+00	9.845520e-01	1.028697e+00	9.835644e-01	1.138292e+00	1.007994e+00	9.695476e-01	1.015063e+00	7.948867e-01	8.256914e-01	9.709112e-01	9.340063e-01	9.019420e-01	7.686803e-01	1.100284e+00	1.164584e+00	1.118940e+00	9.244357e-01	9.438027e-01	7.406709e-01	7.720142e-01	8.564554e-01	8.759142e-01	9.023927e-01	7.593115e-01	8.446634e-01	1.264080e+00	1.259919e+00	1.262517e+00	1.251157e+00	1.252609e+00	1.239696e+00	1.247213e+00	1.279445e+00	1.284078e+00	1.294778e+00	1.165988e+00	1.167835e+00	1.159410e+00	1.188064e+00	1.181983e+00	1.226534e+00	1.174369e+00	1.175794e+00	1.154310e+00	1.155393e+00	1.183682e+00	1.183173e+00	1.212812e+00	1.190820e+00	1.187156e+00	1.405962e+00	1.407468e+00	1.408334e+00	1.233580e+00	1.243044e+00	1.213492e+00	1.180089e+00	1.186733e+00	1.179293e+00	1.190422e+00	1.194015e+00	1.195513e+00	1.196872e+00	1.196154e+00	1.185402e+00	1.187542e+00	1.182978e+00	1.202935e+00	1.213733e+00	1.222130e+00	9.871629e-01	1.187470e+00	8.863077e-01	1.193615e+00	1.193550e+00	1.192173e+00	1.408132e+00	1.410180e+00	1.407411e+00	1.410872e+00	1.410069e+00	1.387679e+00	1.379298e+00	1.390342e+00	1.405759e+00	1.407948e+00	1.408149e+00	1.410150e+00	1.410260e+00	1.403632e+00	1.407136e+00	1.269092e+00	1.268141e+00	1.264837e+00	1.268950e+00	1.275734e+00	1.284650e+00	1.287954e+00	1.293489e+00	1.286516e+00	1.290477e+00	1.248076e+00	1.246825e+00	1.249828e+00	1.295613e+00	1.292106e+00	1.297755e+00	1.405018e+00	1.285985e+00	1.282726e+00	1.282759e+00	1.290840e+00	1.291054e+00	1.289062e+00	1.291404e+00	1.288662e+00	1.246787e+00	1.271939e+00	1.268584e+00	1.288198e+00	1.270398e+00	1.273879e+00	1.354803e+00	1.357636e+00	1.361231e+00	1.282399e+00	1.290937e+00	1.162205e+00	1.234814e+00	1.207948e+00	1.232478e+00	1.175305e+00	1.191037e+00	1.024577e+00	9.996742e-01	9.813558e-01	1.257267e+00	1.271629e+00	1.276415e+00	1.057354e+00	1.291121e+00	1.283635e+00	1.303762e+00	1.307370e+00	1.310109e+00	1.137569e+00	1.099427e+00	1.289433e+00	1.297855e+00	1.295238e+00	1.269411e+00	1.276760e+00	1.279325e+00	1.250423e+00	1.221181e+00	1.398377e+00	1.401239e+00	1.427573e+00	1.397475e+00	1.378554e+00	1.374768e+00	1.558578e+00	1.531908e+00	1.524735e+00	1.445415e+00	1.472246e+00	1.477239e+00	1.452572e+00	1.371646e+00	1.415424e+00	1.642961e+00	1.329986e+00	1.336679e+00	1.341597e+00	1.398748e+00	1.392548e+00	1.390823e+00	1.319192e+00	1.303835e+00	1.316700e+00	1.379527e+00	1.372044e+00	1.363602e+00	1.259352e+00	1.244507e+00	1.387049e+00	1.369255e+00	1.382196e+00	1.303279e+00	1.260346e+00	1.270473e+00	1.251623e+00	1.397892e+00	1.404826e+00	1.403925e+00	1.232295e+00	1.238594e+00	1.220951e+00	1.182076e+00	1.219766e+00	1.201776e+00	1.307372e+00	1.303956e+00	1.305174e+00	1.314123e+00	1.309207e+00	1.334467e+00	1.313775e+00	1.315277e+00	1.236003e+00	1.240248e+00	1.231563e+00	1.221139e+00	1.218259e+00	1.209903e+00	1.227075e+00	1.163647e+00	1.145262e+00	1.084532e+00	1.169608e+00	1.196449e+00	9.755012e-01	9.667711e-01	1.043811e+00	1.290722e+00	1.290259e+00	1.291857e+00	1.291761e+00	1.261047e+00	1.273118e+00	1.276528e+00	7.173142e-01	7.620955e-01	7.060499e-01	7.348281e-01	7.238390e-01	7.373244e-01	1.282252e+00	1.278317e+00	1.283684e+00	1.291762e+00	7.161798e-01	7.486293e-01	7.288177e-01	1.389119e+00	1.388264e+00	1.394983e+00	1.395520e+00	1.215067e+00	1.215743e+00	1.350238e+00	1.225222e+00	1.279559e+00	1.271880e+00	1.271965e+00	1.243978e+00	1.256866e+00	1.274019e+00	1.266436e+00	1.276969e+00	1.273137e+00	1.268097e+00	1.262575e+00	1.285789e+00	1.286456e+00	1.281416e+00	1.214572e+00	1.188807e+00	1.205103e+00	1.292896e+00	1.292840e+00	1.169714e+00	1.196903e+00	1.234254e+00	1.229094e+00	1.150692e+00	1.189851e+00	1.187539e+00	1.271544e+00	1.292808e+00	1.292909e+00	1.292980e+00	1.224199e+00	1.215905e+00	1.210093e+00	1.272529e+00	1.318272e+00	1.274968e+00	1.301340e+00	1.301420e+00	1.225552e+00	1.224512e+00	1.229375e+00	1.210763e+00	1.348444e+00	1.355672e+00	1.366520e+00	1.350719e+00	1.388659e+00	1.292720e+00	1.292611e+00	1.292665e+00	1.377027e+00	1.296319e+00	1.295449e+00	1.295112e+00	1.483010e+00	1.502279e+00	1.491255e+00	1.292994e+00	1.292912e+00	1.292968e+00	1.516147e+00	1.481747e+00	1.502993e+00	1.298778e+00	1.297150e+00	1.298861e+00	1.292730e+00	1.293816e+00	1.294419e+00	1.293445e+00	1.305008e+00	1.310502e+00	1.305629e+00	1.292672e+00	1.292544e+00	1.292555e+00	1.295857e+00	1.295785e+00	1.298200e+00	1.292542e+00	1.292928e+00	1.292962e+00	1.292657e+00	1.292276e+00	1.292194e+00	1.292156e+00	1.292462e+00	1.292517e+00	1.292313e+00	1.292321e+00	1.292296e+00	1.292397e+00	1.292401e+00	1.292360e+00	1.292347e+00	1.292334e+00	1.292294e+00	1.292281e+00	1.292242e+00	1.292269e+00	1.292267e+00	1.292195e+00	1.292179e+00	1.292222e+00	1.264161e+00	1.357022e+00	9.265251e-01	9.335440e-01	1.291596e+00	1.291951e+00	1.291210e+00	1.292080e+00	1.291929e+00	1.292023e+00	1.292154e+00	1.291992e+00	1.084300e+00	1.100959e+00	1.183348e+00	8.960964e-01	8.427467e-01	8.767691e-01	1.155604e+00	1.072449e+00	1.085171e+00	1.291913e+00	1.245867e+00	1.202208e+00	1.266701e+00	1.286758e+00	1.283768e+00	1.288282e+00	1.285907e+00	1.288478e+00	1.271246e+00	1.253545e+00	1.245079e+00	7.957185e-01	8.121286e-01	7.657067e-01	1.318105e+00	1.316683e+00	7.924376e-01	7.875039e-01	8.342680e-01	8.581580e-01	1.167818e+00	1.072355e+00	1.001706e+00	1.030473e+00	1.306842e+00	1.309590e+00	1.100380e+00	1.053318e+00	1.100755e+00	1.308861e+00	1.150280e+00	1.137475e+00	1.250764e+00	1.246498e+00	1.210962e+00	1.291624e+00	1.290344e+00	1.292295e+00	1.318874e+00	1.267152e+00	1.278597e+00	1.289669e+00	1.307790e+00	1.273965e+00	1.292491e+00	1.409525e+00	1.293123e+00	1.292863e+00	1.292401e+00	1.292379e+00	1.292981e+00	1.293090e+00	1.293272e+00	1.292122e+00	1.292384e+00	1.292568e+00	1.292685e+00	1.292793e+00	1.292858e+00	1.292869e+00	1.291738e+00	1.291784e+00	1.291673e+00	1.291803e+00	1.291772e+00	1.291935e+00	1.292538e+00	1.292274e+00	1.292035e+00	1.292097e+00	1.293591e+00	1.293943e+00	1.293117e+00	1.293105e+00	1.454187e+00	1.458006e+00	1.487025e+00	1.292024e+00	1.292149e+00	1.294005e+00	1.293561e+00	1.557508e+00	1.630403e+00	1.610142e+00	1.291434e+00	1.291614e+00	1.291314e+00	1.291868e+00	1.291874e+00	1.290119e+00	1.291002e+00	1.291193e+00	1.287957e+00	1.289416e+00	1.293168e+00	1.293349e+00	1.292566e+00	1.292478e+00	1.292524e+00	1.292898e+00	1.292325e+00	1.292348e+00	1.292365e+00	1.292257e+00	1.292227e+00	1.292211e+00	1.291686e+00	1.291615e+00	1.292939e+00	1.293430e+00	1.293290e+00	1.293218e+00	1.292048e+00	1.292000e+00	1.291941e+00	1.291683e+00	1.291799e+00	1.291864e+00	1.291905e+00	1.291918e+00	1.291895e+00	1.292329e+00	1.292427e+00	1.293138e+00	1.292840e+00	1.292860e+00	1.292396e+00	1.292436e+00	1.292413e+00	1.291643e+00	1.291843e+00	1.292468e+00	1.293198e+00	1.292948e+00	1.224174e+00	9.106469e-01	1.290398e+00	1.291287e+00	1.291026e+00	1.291833e+00	1.292337e+00	1.293014e+00	1.293097e+00	1.291758e+00	1.291891e+00	1.291779e+00	1.292370e+00	1.292383e+00	1.292516e+00	1.292451e+00	1.291306e+00	1.292815e+00	1.292977e+00	1.293640e+00	1.294308e+00	1.294102e+00	1.293620e+00	1.292671e+00	1.291828e+00	1.295974e+00	1.298022e+00	1.290227e+00	6.595924e-01	6.683990e-01	1.292216e+00	1.292179e+00	1.292118e+00	1.292345e+00	1.292324e+00	1.291642e+00	1.291615e+00	1.292230e+00	1.292304e+00	1.292433e+00	1.292001e+00	1.292090e+00	1.293025e+00	1.293138e+00	1.292830e+00	1.292810e+00	1.292822e+00	1.292965e+00	1.291734e+00	1.291931e+00	1.292011e+00	1.292460e+00	1.292519e+00	1.292597e+00	1.292623e+00	1.292699e+00	1.293399e+00	1.293144e+00	1.291972e+00	1.291759e+00	1.292622e+00	1.291402e+00	1.292107e+00	1.292639e+00	1.292757e+00	1.291879e+00	1.291972e+00	1.291712e+00	1.292743e+00	1.292523e+00	1.292594e+00	1.292618e+00	1.291861e+00	1.292482e+00	1.292484e+00	1.292533e+00	1.292136e+00	1.292022e+00	1.291976e+00	1.292058e+00	1.291476e+00	1.291502e+00	1.292925e+00	1.292650e+00	1.292725e+00	1.291851e+00	1.294423e+00	1.427954e+00	1.387617e+00	1.415782e+00	1.291536e+00	1.291402e+00	1.292054e+00	1.292456e+00	1.291938e+00	1.291555e+00	1.292546e+00	1.291773e+00	1.292175e+00	1.044836e+00	1.021865e+00	9.147727e-01	1.291536e+00	1.291825e+00	1.292283e+00	1.292050e+00	1.291744e+00	1.292160e+00	1.294840e+00	1.291629e+00	1.293623e+00	1.294265e+00	1.290851e+00	1.291525e+00	1.484129e+00	1.294484e+00	1.289813e+00	1.286639e+00	1.293844e+00	1.295142e+00	1.288798e+00	1.286769e+00	1.289271e+00	1.287783e+00	1.290534e+00	1.292796e+00	1.291078e+00	1.294699e+00	1.406053e+00	1.404557e+00	1.408662e+00	1.292677e+00	1.295193e+00	1.291489e+00	1.290944e+00	1.291340e+00	1.291095e+00	1.292388e+00	1.291022e+00	9.085573e-01	9.588800e-01	8.670304e-01	1.290043e+00	1.290939e+00	1.294214e+00	1.296615e+00	1.296297e+00	1.299394e+00	1.299788e+00	1.289448e+00	1.300339e+00	1.299532e+00	1.291886e+00	1.294136e+00	1.289125e+00	1.284993e+00	1.288303e+00	1.295115e+00	1.297905e+00	1.291329e+00	1.302777e+00	1.300172e+00	1.296811e+00	1.295677e+00	1.290103e+00	1.320650e+00	1.326306e+00	1.340443e+00	7.123491e-01	1.291805e+00	1.302005e+00	1.299556e+00	1.296057e+00	1.296729e+00	1.298730e+00	1.271476e+00	1.288938e+00	1.311410e+00	1.307106e+00	9.334510e-01	1.302645e+00	1.290266e+00	1.304374e+00	1.283382e+00	1.269411e+00	6.576189e-01	6.450369e-01	6.803681e-01	1.278770e+00	1.288831e+00	1.286197e+00	1.293997e+00	1.290629e+00	1.295066e+00	1.218954e+00	1.179369e+00	1.223281e+00	1.292686e+00	1.292800e+00	1.284348e+00	1.302457e+00	1.286865e+00	1.292708e+00	1.296593e+00	1.300814e+00	1.302005e+00	1.307569e+00	1.307942e+00	1.245804e+00	1.254838e+00	1.221589e+00	1.293579e+00	1.308560e+00	1.309933e+00	1.314017e+00	1.304564e+00	1.285246e+00	1.287693e+00	1.306159e+00	1.307939e+00	8.461655e-01	9.192470e-01	1.276499e+00	1.251918e+00	1.302669e+00	1.313710e+00	1.308027e+00	1.327350e+00	1.319068e+00	1.268100e+00	1.275910e+00	1.304446e+00	1.303358e+00	1.295749e+00	1.318665e+00	1.309258e+00	1.307024e+00	1.424938e+00	1.466403e+00	1.290007e+00	1.284840e+00	1.312922e+00	1.291579e+00	1.298977e+00	7.285845e-01	7.518425e-01	7.641134e-01	1.309424e+00	1.241442e+00	1.308239e+00	1.303366e+00	1.310811e+00	1.293192e+00	1.299656e+00	1.252266e+00	1.328672e+00	1.308456e+00	1.309129e+00	1.273812e+00	1.230198e+00	1.316297e+00	1.307522e+00	1.315419e+00	1.211190e+00	1.286076e+00	1.321944e+00	1.319246e+00	1.329180e+00	1.306256e+00	1.164081e+00	1.160675e+00	1.078249e+00	1.323126e+00	1.317524e+00	1.310400e+00	1.292358e+00	1.280574e+00	1.329153e+00	1.296910e+00	1.281779e+00	1.306118e+00	1.296955e+00	1.302849e+00	1.308478e+00	1.310328e+00	1.309780e+00	1.322390e+00	1.248043e+00	1.174179e+00	1.283943e+00	1.254822e+00	1.314844e+00	1.312681e+00	1.399761e+00	1.391772e+00	1.325449e+00	1.330738e+00	1.314766e+00	1.300222e+00	1.186707e+00	1.086345e+00	1.149642e+00	1.039834e+00	1.293491e+00	1.331930e+00	1.325941e+00	1.324380e+00	1.334933e+00	1.313500e+00	1.279095e+00	1.054192e+00	1.061750e+00	9.029399e-01	8.843481e-01	8.655482e-01	1.220928e+00	1.243918e+00	1.288653e+00	1.280484e+00	1.134260e+00	1.123246e+00	1.201427e+00	1.306467e+00	1.327110e+00	1.285227e+00	1.260486e+00	1.276348e+00	1.279497e+00	1.005583e+00	1.393870e+00	1.424964e+00	1.330570e+00	1.325068e+00	1.302012e+00	1.318800e+00	1.346264e+00	1.330727e+00	1.337106e+00	6.116608e-01	6.027676e-01	5.876945e-01	1.063070e+00	1.265866e+00	1.236868e+00	1.255680e+00	1.357593e+00	1.342436e+00	1.332817e+00	1.235165e+00	1.315111e+00	1.348724e+00	1.344634e+00	1.294838e+00	1.349637e+00	1.357026e+00	1.400461e+00	1.402343e+00	1.397387e+00	9.769658e-01	1.011070e+00	1.024706e+00	1.135373e+00	1.185151e+00	1.222177e+00	1.215651e+00	1.259790e+00	1.199468e+00	1.044166e+00	1.318239e+00	1.331956e+00	1.314360e+00	1.164329e+00	1.277628e+00	1.300777e+00	1.369768e+00	1.350169e+00	1.211078e+00	1.332254e+00	1.296487e+00	1.287483e+00	1.299990e+00	1.342945e+00	1.342928e+00	1.381688e+00	1.375038e+00	1.402185e+00	1.437819e+00	1.414834e+00	1.284866e+00	1.260390e+00	1.309882e+00	1.288808e+00	1.302476e+00	1.130355e+00	1.336615e+00	1.346863e+00	1.316540e+00	1.346031e+00	1.377199e+00	1.352721e+00	9.617754e-01	8.712541e-01	9.081729e-01	1.205096e+00	1.200603e+00	1.303765e+00	1.294435e+00	9.445358e-01	7.990376e-01	1.277128e+00	1.499522e+00	1.484642e+00	1.256828e+00	1.360163e+00	1.188288e+00	1.358866e+00	1.298981e+00	1.281816e+00	1.289842e+00	1.278457e+00	1.290184e+00	1.348150e+00	1.369888e+00	1.121454e+00	1.308562e+00	1.302695e+00	1.195277e+00	1.198110e+00	1.220765e+00	1.229620e+00	1.241463e+00	1.175740e+00	9.375232e-01	9.644516e-01	1.284005e+00	1.284206e+00	1.280865e+00	1.357110e+00	1.368646e+00	1.363139e+00	1.288750e+00	1.231849e+00	1.312683e+00	1.287947e+00	1.228380e+00	1.213994e+00	1.103982e+00	1.087043e+00	1.293703e+00	1.280912e+00	1.017436e+00	1.300262e+00	8.799541e-01	1.189793e+00	1.436783e+00	1.254229e+00	1.247445e+00	1.290327e+00	1.293036e+00	1.291676e+00	1.063264e+00	1.139238e+00	1.092052e+00	1.264544e+00	1.328935e+00	1.359710e+00	1.167063e+00	1.226615e+00	1.360785e+00	1.352492e+00	1.288081e+00	1.277728e+00	1.367934e+00	1.409166e+00	8.250240e-01	1.457483e+00	1.370683e+00	1.336341e+00	1.514806e+00	1.482077e+00	1.497986e+00	1.503192e+00	1.527613e+00	9.030284e-01	1.223173e+00	1.285007e+00	1.292655e+00	1.295555e+00	1.342079e+00	1.329306e+00	8.736979e-01	1.131979e+00	9.030234e-01	1.164428e+00	1.119430e+00	1.299825e+00	1.305393e+00	1.300083e+00	1.251124e+00	1.251376e+00	1.248108e+00	1.283297e+00	1.288261e+00	1.309638e+00	1.311060e+00	8.025066e-01	1.222500e+00	1.220977e+00	1.381926e+00	1.165775e+00	1.163881e+00	1.155183e+00	1.287637e+00	1.265379e+00	1.270248e+00	1.234543e+00	1.195303e+00	1.155920e+00	1.208907e+00	1.241175e+00	1.244698e+00	1.245058e+00	1.246763e+00	1.451336e+00	1.413781e+00	1.414966e+00	1.444520e+00	1.465971e+00	1.465759e+00	1.237956e+00	1.367615e+00	1.380452e+00	1.374730e+00	1.369985e+00	1.240369e+00	1.045206e+00	1.380949e+00	9.589542e-01	1.376698e+00	1.391059e+00	7.511035e-01	1.256405e+00	1.308592e+00	1.308308e+00	1.042008e+00	8.241827e-01	1.370838e+00	1.211302e+00	8.743958e-01	9.015379e-01	1.366850e+00	1.354713e+00	1.344503e+00	7.441229e-01	7.102170e-01	6.967315e-01	6.637822e-01	1.112857e+00	1.262895e+00	1.298147e+00	1.303544e+00	1.155120e+00	8.979234e-01	1.078532e+00	1.377275e+00	1.387135e+00	1.377988e+00	1.153337e+00	1.303328e+00	1.281077e+00	1.276958e+00	1.294968e+00	1.284031e+00	1.275607e+00	1.593186e+00	1.462468e+00	1.240788e+00	1.216985e+00	1.233571e+00	1.207465e+00	8.294410e-01	1.526551e+00	1.545603e+00	1.376803e+00	1.241703e+00	1.249217e+00	1.331508e+00	1.284754e+00	1.299893e+00	8.588083e-01	1.190269e+00	1.205154e+00	1.262987e+00	1.207932e+00	1.118390e+00	1.302734e+00	1.306886e+00	1.305979e+00	1.155787e+00	1.052246e+00	1.090060e+00	9.859178e-01	1.204751e+00	1.278772e+00	1.296229e+00	1.041516e+00	1.396012e+00	1.408312e+00	1.410727e+00	1.215861e+00	1.190143e+00	8.270299e-01	1.255090e+00	1.251917e+00	1.242279e+00	1.243507e+00	1.243999e+00	1.164614e+00	1.270896e+00	1.250660e+00	1.262004e+00	1.382535e+00	1.367836e+00	1.315985e+00	1.398851e+00	1.408294e+00	1.304196e+00	1.291876e+00	7.591821e-01	1.006784e+00	9.870929e-01	1.280470e+00	1.471044e+00	1.302039e+00	1.106400e+00	1.102223e+00	1.133583e+00	1.182903e+00	1.224658e+00	1.105316e+00	1.156457e+00	1.404436e+00	1.400224e+00	1.403604e+00	1.410918e+00	1.451659e+00	1.343741e+00	1.290624e+00	1.293827e+00	1.279928e+00	1.256815e+00	1.376350e+00	1.345763e+00	1.337601e+00	1.387102e+00	1.208700e+00	1.312056e+00	1.306004e+00	1.389556e+00	1.385657e+00	1.360049e+00	1.291027e+00	7.195605e-01	8.071162e-01	7.086823e-01	1.083748e+00	1.059586e+00	1.064833e+00	1.370238e+00	1.400689e+00	1.410487e+00	1.414073e+00	1.096344e+00	1.108740e+00	1.044675e+00	1.207509e+00	1.346186e+00	1.357306e+00	1.367730e+00	1.244285e+00	1.310522