# vtk DataFile Version 3.0
vtk output
ASCII
DATASET UNSTRUCTURED_GRID
POINTS 198 double
0.000000e+00	0.000000e+00	0.0	3.107298e-03	3.917231e-03	0.0	6.344335e-03	7.965747e-03	0.0	1.083859e-02	1.092012e-02	0.0	1.553842e-02	1.390467e-02	0.0	2.086988e-02	1.612752e-02	0.0	2.641630e-02	1.836272e-02	0.0	3.231280e-02	2.025688e-02	0.0	3.843698e-02	2.213919e-02	0.0	4.484948e-02	2.381711e-02	0.0	5.152068e-02	2.536423e-02	0.0	5.848061e-02	2.666498e-02	0.0	6.572798e-02	2.758415e-02	0.0	7.324235e-02	2.829316e-02	0.0	8.102691e-02	2.845410e-02	0.0	8.905056e-02	2.870117e-02	0.0	9.731334e-02	2.910596e-02	0.0	1.057577e-01	3.014678e-02	0.0	1.144164e-01	3.152800e-02	0.0	1.231398e-01	3.376280e-02	0.0	1.320418e-01	3.634712e-02	0.0	1.411275e-01	3.918720e-02	0.0	1.503871e-01	4.231448e-02	0.0	1.598848e-01	4.552222e-02	0.0	1.697280e-01	4.846929e-02	0.0	1.798164e-01	5.146615e-02	0.0	1.902245e-01	5.419129e-02	0.0	2.010430e-01	5.625999e-02	0.0	2.120975e-01	5.837383e-02	0.0	2.235099e-01	5.958828e-02	0.0	2.351980e-01	6.048263e-02	0.0	2.471170e-01	6.127401e-02	0.0	2.592815e-01	6.154673e-02	0.0	2.716585e-01	6.182420e-02	0.0	2.842397e-01	6.213878e-02	0.0	2.970172e-01	6.247577e-02	0.0	3.099785e-01	6.289336e-02	0.0	3.230927e-01	6.383256e-02	0.0	3.363741e-01	6.478375e-02	0.0	3.497894e-01	6.600572e-02	0.0	3.633350e-01	6.740700e-02	0.0	3.770126e-01	6.882759e-02	0.0	3.908049e-01	7.031292e-02	0.0	4.047043e-01	7.180979e-02	0.0	4.187147e-01	7.313978e-02	0.0	4.328171e-01	7.435446e-02	0.0	4.469892e-01	7.551764e-02	0.0	4.612481e-01	7.614578e-02	0.0	4.755442e-01	7.677557e-02	0.0	4.898702e-01	7.689504e-02	0.0	5.042085e-01	7.668965e-02	0.0	5.185321e-01	7.634563e-02	0.0	5.327850e-01	7.506876e-02	0.0	5.470008e-01	7.379522e-02	0.0	5.610760e-01	7.183481e-02	0.0	5.750344e-01	6.948660e-02	0.0	5.889028e-01	6.709485e-02	0.0	6.025913e-01	6.425540e-02	0.0	6.161741e-01	6.143784e-02	0.0	6.296524e-01	5.871218e-02	0.0	6.430108e-01	5.606666e-02	0.0	6.562265e-01	5.344939e-02	0.0	6.694088e-01	5.157124e-02	0.0	6.824257e-01	4.972195e-02	0.0	6.953006e-01	4.819394e-02	0.0	7.080322e-01	4.706153e-02	0.0	7.205679e-01	4.594654e-02	0.0	7.329149e-01	4.504391e-02	0.0	7.450514e-01	4.417546e-02	0.0	7.569583e-01	4.319677e-02	0.0	7.686266e-01	4.207311e-02	0.0	7.800613e-01	4.094460e-02	0.0	7.911898e-01	3.926333e-02	0.0	8.020807e-01	3.761796e-02	0.0	8.126748e-01	3.568457e-02	0.0	8.230084e-01	3.369079e-02	0.0	8.330822e-01	3.166792e-02	0.0	8.428956e-01	2.961954e-02	0.0	8.524672e-01	2.764473e-02	0.0	8.618084e-01	2.580067e-02	0.0	8.709025e-01	2.400538e-02	0.0	8.797685e-01	2.235568e-02	0.0	8.883925e-01	2.077204e-02	0.0	8.967753e-01	1.925260e-02	0.0	9.049219e-01	1.781364e-02	0.0	9.128278e-01	1.641721e-02	0.0	9.204953e-01	1.506113e-02	0.0	9.279276e-01	1.374630e-02	0.0	9.351259e-01	1.246037e-02	0.0	9.420922e-01	1.119407e-02	0.0	9.488340e-01	9.968047e-03	0.0	9.553498e-01	8.751270e-03	0.0	9.616495e-01	7.574835e-03	0.0	9.677330e-01	6.414140e-03	0.0	9.736087e-01	5.288809e-03	0.0	9.792773e-01	4.178913e-03	0.0	9.847466e-01	3.098621e-03	0.0	9.900197e-01	2.039869e-03	0.0	9.951010e-01	9.995823e-04	0.0	1.000000e+00	0.000000e+00	0.0	9.950056e-01	2.325012e-04	0.0	9.898222e-01	4.223423e-04	0.0	9.844454e-01	5.614951e-04	0.0	9.788709e-01	6.571590e-04	0.0	9.730944e-01	7.290324e-04	0.0	9.671111e-01	7.444683e-04	0.0	9.609168e-01	7.376495e-04	0.0	9.545072e-01	6.663258e-04	0.0	9.478779e-01	5.794943e-04	0.0	9.410261e-01	3.977538e-04	0.0	9.339461e-01	2.099597e-04	0.0	9.266374e-01	-8.190199e-05	0.0	9.190940e-01	-4.068369e-04	0.0	9.113142e-01	-7.886841e-04	0.0	9.032968e-01	-1.265328e-03	0.0	8.950351e-01	-1.756498e-03	0.0	8.865349e-01	-2.382502e-03	0.0	8.777875e-01	-3.045272e-03	0.0	8.687958e-01	-3.791381e-03	0.0	8.595613e-01	-4.653966e-03	0.0	8.500766e-01	-5.547647e-03	0.0	8.403621e-01	-6.670722e-03	0.0	8.303975e-01	-7.822721e-03	0.0	8.202149e-01	-9.241910e-03	0.0	8.097949e-01	-1.076767e-02	0.0	7.991628e-01	-1.252579e-02	0.0	7.883198e-01	-1.450598e-02	0.0	7.772554e-01	-1.660643e-02	0.0	7.660179e-01	-1.904759e-02	0.0	7.545540e-01	-2.153794e-02	0.0	7.428851e-01	-2.414899e-02	0.0	7.310067e-01	-2.683048e-02	0.0	7.189070e-01	-2.949627e-02	0.0	7.065605e-01	-3.198987e-02	0.0	6.940208e-01	-3.452249e-02	0.0	6.812227e-01	-3.667201e-02	0.0	6.682093e-01	-3.862677e-02	0.0	6.550204e-01	-4.052974e-02	0.0	6.415901e-01	-4.174106e-02	0.0	6.280147e-01	-4.296547e-02	0.0	6.142848e-01	-4.390011e-02	0.0	6.004181e-01	-4.461735e-02	0.0	5.864429e-01	-4.532495e-02	0.0	5.723642e-01	-4.583010e-02	0.0	5.582050e-01	-4.633814e-02	0.0	5.439807e-01	-4.688592e-02	0.0	5.297057e-01	-4.746324e-02	0.0	5.153945e-01	-4.806590e-02	0.0	5.010729e-01	-4.890974e-02	0.0	4.867439e-01	-4.975401e-02	0.0	4.724418e-01	-5.086099e-02	0.0	4.581747e-01	-5.213682e-02	0.0	4.439524e-01	-5.347882e-02	0.0	4.298391e-01	-5.533407e-02	0.0	4.157915e-01	-5.718065e-02	0.0	4.018572e-01	-5.924555e-02	0.0	3.880369e-01	-6.143859e-02	0.0	3.743199e-01	-6.359237e-02	0.0	3.606922e-01	-6.552591e-02	0.0	3.471969e-01	-6.744067e-02	0.0	3.337912e-01	-6.883590e-02	0.0	3.205029e-01	-6.985705e-02	0.0	3.073796e-01	-7.077503e-02	0.0	2.944015e-01	-7.050246e-02	0.0	2.816114e-01	-7.023384e-02	0.0	2.690439e-01	-6.950068e-02	0.0	2.567015e-01	-6.841104e-02	0.0	2.445719e-01	-6.733395e-02	0.0	2.326837e-01	-6.604892e-02	0.0	2.210204e-01	-6.478819e-02	0.0	2.095726e-01	-6.371038e-02	0.0	1.983446e-01	-6.282256e-02	0.0	1.873565e-01	-6.195371e-02	0.0	1.765962e-01	-6.133731e-02	0.0	1.660815e-01	-6.074908e-02	0.0	1.558241e-01	-6.005551e-02	0.0	1.458287e-01	-5.921063e-02	0.0	1.360843e-01	-5.838697e-02	0.0	1.266920e-01	-5.681477e-02	0.0	1.175605e-01	-5.519210e-02	0.0	1.087786e-01	-5.319716e-02	0.0	1.004091e-01	-5.056881e-02	0.0	9.227730e-02	-4.801508e-02	0.0	8.460461e-02	-4.492629e-02	0.0	7.720321e-02	-4.180785e-02	0.0	7.007143e-02	-3.868001e-02	0.0	6.326337e-02	-3.541524e-02	0.0	5.666787e-02	-3.225240e-02	0.0	5.027255e-02	-2.920906e-02	0.0	4.408226e-02	-2.626618e-02	0.0	3.806479e-02	-2.348329e-02	0.0	3.223559e-02	-2.081720e-02	0.0	2.661167e-02	-1.822075e-02	0.0	2.119132e-02	-1.568778e-02	0.0	1.603710e-02	-1.307865e-02	0.0	1.116941e-02	-1.036812e-02	0.0	6.600913e-03	-7.537196e-03	0.0	2.618398e-03	-4.214082e-03	0.0	
CELLS 198	594
2	3	4	2	4	5	2	5	6	2	6	7	2	7	8	2	8	9	2	9	10	2	10	11	2	11	12	2	12	13	2	13	14	2	14	15	2	15	16	2	16	17	2	17	18	2	18	19	2	19	20	2	20	21	2	21	22	2	22	23	2	23	24	2	24	25	2	25	26	2	26	27	2	27	28	2	28	29	2	29	30	2	30	31	2	31	32	2	32	33	2	33	34	2	34	35	2	35	36	2	36	37	2	37	38	2	38	39	2	39	40	2	40	41	2	41	42	2	42	43	2	43	44	2	44	45	2	45	46	2	46	47	2	47	48	2	48	49	2	49	50	2	50	51	2	51	52	2	52	53	2	53	54	2	54	55	2	55	56	2	56	57	2	57	58	2	58	59	2	59	60	2	60	61	2	61	62	2	62	63	2	63	64	2	64	65	2	65	66	2	66	67	2	67	68	2	68	69	2	69	70	2	70	71	2	71	72	2	72	73	2	0	1	2	1	2	2	2	3	2	137	138	2	138	139	2	139	140	2	140	141	2	141	142	2	142	143	2	143	144	2	144	145	2	145	146	2	146	147	2	147	148	2	148	149	2	149	150	2	150	151	2	151	152	2	152	153	2	153	154	2	154	155	2	155	156	2	156	157	2	157	158	2	158	159	2	159	160	2	160	161	2	161	162	2	162	163	2	163	164	2	164	165	2	165	166	2	166	167	2	167	168	2	168	169	2	169	170	2	170	171	2	171	172	2	172	173	2	173	174	2	174	175	2	175	176	2	176	177	2	177	178	2	178	179	2	179	180	2	180	181	2	181	182	2	182	183	2	183	184	2	184	185	2	185	186	2	186	187	2	187	188	2	188	189	2	189	190	2	190	191	2	191	192	2	192	193	2	193	194	2	194	195	2	195	196	2	196	197	2	197	0	2	73	74	2	74	75	2	75	76	2	76	77	2	77	78	2	78	79	2	79	80	2	80	81	2	81	82	2	82	83	2	83	84	2	84	85	2	85	86	2	86	87	2	87	88	2	88	89	2	89	90	2	90	91	2	91	92	2	92	93	2	93	94	2	94	95	2	95	96	2	96	97	2	97	98	2	98	99	2	99	100	2	100	101	2	101	102	2	102	103	2	103	104	2	104	105	2	105	106	2	106	107	2	107	108	2	108	109	2	109	110	2	110	111	2	111	112	2	112	113	2	113	114	2	114	115	2	115	116	2	116	117	2	117	118	2	118	119	2	119	120	2	120	121	2	121	122	2	122	123	2	123	124	2	124	125	2	125	126	2	126	127	2	127	128	2	128	129	2	129	130	2	130	131	2	131	132	2	132	133	2	133	134	2	134	135	2	135	136	2	136	137	
CELL_TYPES 198
3	3	3	3	3	3	3	3	3	3	3	3	3	3	3	3	3	3	3	3	3	3	3	3	3	3	3	3	3	3	3	3	3	3	3	3	3	3	3	3	3	3	3	3	3	3	3	3	3	3	3	3	3	3	3	3	3	3	3	3	3	3	3	3	3	3	3	3	3	3	3	3	3	3	3	3	3	3	3	3	3	3	3	3	3	3	3	3	3	3	3	3	3	3	3	3	3	3	3	3	3	3	3	3	3	3	3	3	3	3	3	3	3	3	3	3	3	3	3	3	3	3	3	3	3	3	3	3	3	3	3	3	3	3	3	3	3	3	3	3	3	3	3	3	3	3	3	3	3	3	3	3	3	3	3	3	3	3	3	3	3	3	3	3	3	3	3	3	3	3	3	3	3	3	3	3	3	3	3	3	3	3	3	3	3	3	3	3	3	3	3	3	3	3	3	3	3	3	
POINT_DATA 198

SCALARS Density double 1
LOOKUP_TABLE default
1.527245e+00	1.161849e+00	1.095402e+00	9.870920e-01	9.321924e-01	8.788168e-01	8.845510e-01	8.868615e-01	8.926480e-01	8.641852e-01	8.286144e-01	8.000787e-01	8.516903e-01	1.018278e+00	1.186608e+00	1.259312e+00	1.300073e+00	1.319267e+00	1.325337e+00	1.314532e+00	1.281041e+00	1.251409e+00	1.213347e+00	1.154016e+00	1.101922e+00	1.052770e+00	9.694130e-01	9.127733e-01	8.505743e-01	7.801958e-01	7.534550e-01	7.262033e-01	7.017916e-01	7.080118e-01	7.183574e-01	7.300354e-01	7.594968e-01	8.166688e-01	9.368645e-01	1.099056e+00	1.135157e+00	1.124637e+00	1.101113e+00	1.071142e+00	1.041440e+00	1.017159e+00	9.726651e-01	9.344069e-01	8.996289e-01	8.553563e-01	8.288153e-01	7.749158e-01	7.279211e-01	6.966964e-01	6.507934e-01	6.306849e-01	6.066306e-01	5.834219e-01	6.090569e-01	7.528576e-01	1.063895e+00	1.196379e+00	1.208739e+00	1.198153e+00	1.204402e+00	1.195273e+00	1.184813e+00	1.177554e+00	1.161639e+00	1.148871e+00	1.144435e+00	1.132810e+00	1.137552e+00	1.153537e+00	1.162245e+00	1.179734e+00	1.193489e+00	1.206615e+00	1.219810e+00	1.227095e+00	1.233568e+00	1.239276e+00	1.241699e+00	1.246011e+00	1.248807e+00	1.251180e+00	1.254349e+00	1.257558e+00	1.260486e+00	1.264488e+00	1.268054e+00	1.272334e+00	1.277083e+00	1.281721e+00	1.286921e+00	1.293039e+00	1.299529e+00	1.311291e+00	1.304697e+00	1.339168e+00	1.432216e+00	1.411664e+00	1.404907e+00	1.408894e+00	1.409467e+00	1.410123e+00	1.410492e+00	1.411993e+00	1.411990e+00	1.412499e+00	1.413445e+00	1.411645e+00	1.413334e+00	1.411584e+00	1.412342e+00	1.412351e+00	1.410385e+00	1.411969e+00	1.409988e+00	1.412387e+00	1.411532e+00	1.411305e+00	1.411037e+00	1.407641e+00	1.406378e+00	1.398295e+00	1.394476e+00	1.383307e+00	1.366410e+00	1.352378e+00	1.332246e+00	1.307871e+00	1.289880e+00	1.262965e+00	1.238467e+00	1.229737e+00	1.202416e+00	1.199093e+00	1.208328e+00	1.209493e+00	1.225812e+00	1.235825e+00	1.247998e+00	1.265012e+00	1.276155e+00	1.285694e+00	1.298115e+00	1.303794e+00	1.309581e+00	1.315133e+00	1.312407e+00	1.318698e+00	1.313365e+00	1.299470e+00	1.289298e+00	1.264445e+00	1.232191e+00	1.203734e+00	1.162215e+00	1.110067e+00	1.031968e+00	9.484887e-01	9.641608e-01	1.019601e+00	1.051606e+00	1.106921e+00	1.144249e+00	1.176499e+00	1.216304e+00	1.241374e+00	1.248480e+00	1.256423e+00	1.255431e+00	1.234260e+00	1.213648e+00	1.197449e+00	1.150364e+00	1.134757e+00	1.145101e+00	1.135379e+00	1.182489e+00	1.221175e+00	1.259431e+00	1.318662e+00	1.350528e+00	1.389022e+00	1.426475e+00	1.451908e+00	1.475590e+00	1.494882e+00	1.509919e+00	1.524868e+00	1.539368e+00	1.554139e+00	1.576266e+00	1.601446e+00	1.610425e+00	1.703303e+00	
VECTORS Momentum double
1.828015e+01	2.178463e+02	0.0	1.662039e+02	2.048773e+02	0.0	2.114501e+02	1.923190e+02	0.0	2.483028e+02	1.597946e+02	0.0	2.705971e+02	1.394528e+02	0.0	2.772751e+02	1.131046e+02	0.0	2.852790e+02	1.022826e+02	0.0	2.895240e+02	9.078165e+01	0.0	2.961726e+02	8.412629e+01	0.0	2.964256e+02	7.320469e+01	0.0	2.978546e+02	6.234967e+01	0.0	2.946896e+02	4.664760e+01	0.0	2.986984e+02	3.271664e+01	0.0	2.901151e+02	1.773331e+01	0.0	2.725664e+02	7.926356e+00	0.0	2.600972e+02	9.872111e+00	0.0	2.506944e+02	2.124559e+01	0.0	2.439494e+02	3.447687e+01	0.0	2.421471e+02	5.042729e+01	0.0	2.466585e+02	6.755764e+01	0.0	2.540030e+02	7.665477e+01	0.0	2.618041e+02	8.516521e+01	0.0	2.735613e+02	9.291357e+01	0.0	2.847660e+02	9.089496e+01	0.0	2.928473e+02	8.715642e+01	0.0	3.022809e+02	8.507620e+01	0.0	3.047022e+02	6.924988e+01	0.0	3.053928e+02	5.841666e+01	0.0	3.054011e+02	4.568309e+01	0.0	2.968139e+02	2.729948e+01	0.0	2.942009e+02	2.041090e+01	0.0	2.906197e+02	1.281788e+01	0.0	2.854874e+02	5.922460e+00	0.0	2.878345e+02	6.188345e+00	0.0	2.905638e+02	7.223350e+00	0.0	2.926639e+02	8.301697e+00	0.0	2.955495e+02	1.506384e+01	0.0	3.063564e+02	2.193443e+01	0.0	3.146266e+02	2.561229e+01	0.0	3.174024e+02	3.091686e+01	0.0	3.161561e+02	3.289538e+01	0.0	3.161450e+02	3.369556e+01	0.0	3.172465e+02	3.443842e+01	0.0	3.185655e+02	3.242887e+01	0.0	3.187772e+02	2.875358e+01	0.0	3.207696e+02	2.716830e+01	0.0	3.195225e+02	2.029821e+01	0.0	3.180779e+02	1.395982e+01	0.0	3.167697e+02	8.539363e+00	0.0	3.115942e+02	-6.681320e-01	0.0	3.102149e+02	-5.544647e+00	0.0	3.013775e+02	-1.663481e+01	0.0	2.920042e+02	-2.644200e+01	0.0	2.870478e+02	-3.271360e+01	0.0	2.742176e+02	-4.191184e+01	0.0	2.697528e+02	-4.627992e+01	0.0	2.625150e+02	-4.982883e+01	0.0	2.563903e+02	-5.332022e+01	0.0	2.570424e+02	-5.249801e+01	0.0	2.646021e+02	-5.627010e+01	0.0	2.552855e+02	-4.989451e+01	0.0	2.507962e+02	-4.337654e+01	0.0	2.543014e+02	-3.600559e+01	0.0	2.533795e+02	-3.316905e+01	0.0	2.539451e+02	-2.633940e+01	0.0	2.564032e+02	-2.275793e+01	0.0	2.580142e+02	-2.094253e+01	0.0	2.615704e+02	-1.879839e+01	0.0	2.647970e+02	-2.031814e+01	0.0	2.660411e+02	-2.385748e+01	0.0	2.687550e+02	-2.634566e+01	0.0	2.688324e+02	-3.361713e+01	0.0	2.656278e+02	-4.024952e+01	0.0	2.632370e+02	-4.372944e+01	0.0	2.584826e+02	-4.851003e+01	0.0	2.539675e+02	-4.996630e+01	0.0	2.493370e+02	-5.104597e+01	0.0	2.444849e+02	-5.082408e+01	0.0	2.411719e+02	-4.869745e+01	0.0	2.384852e+02	-4.707072e+01	0.0	2.360941e+02	-4.530333e+01	0.0	2.348763e+02	-4.340309e+01	0.0	2.334337e+02	-4.260783e+01	0.0	2.321733e+02	-4.154790e+01	0.0	2.311067e+02	-4.080986e+01	0.0	2.298899e+02	-4.062963e+01	0.0	2.285526e+02	-4.043162e+01	0.0	2.272226e+02	-4.036762e+01	0.0	2.255127e+02	-4.061737e+01	0.0	2.237512e+02	-4.067690e+01	0.0	2.217893e+02	-4.087830e+01	0.0	2.196265e+02	-4.102449e+01	0.0	2.174117e+02	-4.102380e+01	0.0	2.148965e+02	-4.106363e+01	0.0	2.120514e+02	-4.104525e+01	0.0	2.088697e+02	-4.101320e+01	0.0	2.043729e+02	-4.065752e+01	0.0	1.995493e+02	-4.005177e+01	0.0	1.850230e+02	-4.006282e+01	0.0	2.149402e+02	-1.007572e+01	0.0	2.793367e+02	-1.267273e+01	0.0	2.754814e+02	-9.200226e+00	0.0	2.709501e+02	-5.466926e+00	0.0	2.723592e+02	-3.958891e+00	0.0	2.721625e+02	-2.068832e+00	0.0	2.716968e+02	-1.907684e-01	0.0	2.715607e+02	1.686115e+00	0.0	2.712262e+02	3.285325e+00	0.0	2.708834e+02	5.408268e+00	0.0	2.707812e+02	7.185808e+00	0.0	2.705120e+02	8.990784e+00	0.0	2.704348e+02	1.123262e+01	0.0	2.706978e+02	1.243169e+01	0.0	2.704294e+02	1.468299e+01	0.0	2.705733e+02	1.605895e+01	0.0	2.702881e+02	1.801033e+01	0.0	2.703421e+02	2.024458e+01	0.0	2.705832e+02	2.148641e+01	0.0	2.702333e+02	2.387955e+01	0.0	2.702147e+02	2.529771e+01	0.0	2.694517e+02	2.831588e+01	0.0	2.694415e+02	3.115344e+01	0.0	2.692494e+02	3.441354e+01	0.0	2.694312e+02	3.856184e+01	0.0	2.702294e+02	4.212164e+01	0.0	2.712722e+02	4.725493e+01	0.0	2.738212e+02	5.087952e+01	0.0	2.756834e+02	5.613894e+01	0.0	2.795827e+02	6.075398e+01	0.0	2.848495e+02	6.272009e+01	0.0	2.892649e+02	6.498288e+01	0.0	2.951088e+02	6.580836e+01	0.0	3.014588e+02	6.346817e+01	0.0	3.059162e+02	6.186217e+01	0.0	3.116491e+02	5.764803e+01	0.0	3.163800e+02	5.028202e+01	0.0	3.179563e+02	4.701064e+01	0.0	3.222825e+02	3.744352e+01	0.0	3.223945e+02	2.887537e+01	0.0	3.203933e+02	2.546748e+01	0.0	3.204974e+02	1.908586e+01	0.0	3.175012e+02	1.628355e+01	0.0	3.156925e+02	1.360410e+01	0.0	3.132141e+02	1.111869e+01	0.0	3.102202e+02	1.153377e+01	0.0	3.081929e+02	1.216610e+01	0.0	3.060954e+02	1.257120e+01	0.0	3.034407e+02	1.537306e+01	0.0	3.019983e+02	1.779467e+01	0.0	3.006064e+02	2.052863e+01	0.0	2.995053e+02	2.507661e+01	0.0	2.996393e+02	2.749474e+01	0.0	2.983816e+02	3.369468e+01	0.0	3.001614e+02	3.944644e+01	0.0	3.035043e+02	4.219485e+01	0.0	3.056811e+02	4.678157e+01	0.0	3.110677e+02	4.907087e+01	0.0	3.171525e+02	4.733861e+01	0.0	3.205261e+02	4.546630e+01	0.0	3.251631e+02	3.935627e+01	0.0	3.283036e+02	2.965673e+01	0.0	3.239653e+02	2.380751e+01	0.0	3.315120e+02	7.761706e+00	0.0	3.354885e+02	-7.444102e+00	0.0	3.321845e+02	-1.311647e+01	0.0	3.336698e+02	-2.483522e+01	0.0	3.289699e+02	-2.912607e+01	0.0	3.258512e+02	-3.215652e+01	0.0	3.226088e+02	-3.508618e+01	0.0	3.181404e+02	-3.213489e+01	0.0	3.159375e+02	-2.726356e+01	0.0	3.159904e+02	-2.513365e+01	0.0	3.162194e+02	-2.180374e+01	0.0	3.181078e+02	-1.796966e+01	0.0	3.215040e+02	-1.979620e+01	0.0	3.240194e+02	-2.441803e+01	0.0	3.247718e+02	-2.708522e+01	0.0	3.278368e+02	-4.120038e+01	0.0	3.265491e+02	-5.600359e+01	0.0	3.199021e+02	-6.402562e+01	0.0	3.171722e+02	-8.583242e+01	0.0	3.063919e+02	-9.631195e+01	0.0	2.953411e+02	-1.058675e+02	0.0	2.819569e+02	-1.164428e+02	0.0	2.683498e+02	-1.151362e+02	0.0	2.555093e+02	-1.173666e+02	0.0	2.412109e+02	-1.159688e+02	0.0	2.292518e+02	-1.095504e+02	0.0	2.191384e+02	-1.042876e+02	0.0	2.093113e+02	-9.817212e+01	0.0	2.002072e+02	-9.201765e+01	0.0	1.900534e+02	-8.725093e+01	0.0	1.781603e+02	-8.270823e+01	0.0	1.625220e+02	-7.892949e+01	0.0	1.402971e+02	-7.451832e+01	0.0	1.076904e+02	-6.338088e+01	0.0	6.301638e+01	-4.255465e+01	0.0	-2.508520e+01	2.290090e+01	0.0	
SCALARS Energy double 1
LOOKUP_TABLE default
3.356699e+05	2.605170e+05	2.482043e+05	2.266799e+05	2.163574e+05	2.051579e+05	2.066577e+05	2.071555e+05	2.087511e+05	2.028190e+05	1.956594e+05	1.894001e+05	1.998430e+05	2.326767e+05	2.662803e+05	2.807806e+05	2.888904e+05	2.926701e+05	2.940078e+05	2.921782e+05	2.856574e+05	2.800339e+05	2.729547e+05	2.613219e+05	2.510666e+05	2.416857e+05	2.246161e+05	2.130755e+05	2.004717e+05	1.854615e+05	1.798847e+05	1.741320e+05	1.687890e+05	1.702642e+05	1.725836e+05	1.750903e+05	1.811776e+05	1.936052e+05	2.183635e+05	2.515612e+05	2.588862e+05	2.567297e+05	2.519997e+05	2.459638e+05	2.399001e+05	2.351365e+05	2.259882e+05	2.181339e+05	2.110398e+05	2.017089e+05	1.963298e+05	1.848442e+05	1.747286e+05	1.682009e+05	1.580234e+05	1.537384e+05	1.483678e+05	1.433136e+05	1.482242e+05	1.771515e+05	2.398023e+05	2.671828e+05	2.699242e+05	2.676182e+05	2.689188e+05	2.671272e+05	2.650190e+05	2.637084e+05	2.605876e+05	2.580167e+05	2.572858e+05	2.549184e+05	2.557548e+05	2.589752e+05	2.605470e+05	2.639508e+05	2.665741e+05	2.690500e+05	2.716184e+05	2.729880e+05	2.742053e+05	2.753269e+05	2.757539e+05	2.765889e+05	2.771175e+05	2.775545e+05	2.781545e+05	2.787652e+05	2.793007e+05	2.800608e+05	2.807212e+05	2.815240e+05	2.824248e+05	2.832900e+05	2.842611e+05	2.854152e+05	2.865902e+05	2.888803e+05	2.868617e+05	2.953522e+05	3.183905e+05	3.138229e+05	3.121373e+05	3.130569e+05	3.131661e+05	3.132788e+05	3.133496e+05	3.136496e+05	3.136321e+05	3.137364e+05	3.139249e+05	3.135443e+05	3.139189e+05	3.135402e+05	3.137128e+05	3.137057e+05	3.133014e+05	3.136550e+05	3.132277e+05	3.137413e+05	3.135351e+05	3.135035e+05	3.134580e+05	3.127802e+05	3.125860e+05	3.109817e+05	3.103533e+05	3.081591e+05	3.048787e+05	3.022643e+05	2.983370e+05	2.936115e+05	2.902354e+05	2.849060e+05	2.801615e+05	2.786033e+05	2.730305e+05	2.725775e+05	2.744257e+05	2.744926e+05	2.778437e+05	2.796855e+05	2.820712e+05	2.854241e+05	2.875358e+05	2.893867e+05	2.918386e+05	2.928565e+05	2.939801e+05	2.950623e+05	2.944424e+05	2.957822e+05	2.946250e+05	2.918798e+05	2.900019e+05	2.850127e+05	2.787114e+05	2.732460e+05	2.649210e+05	2.545361e+05	2.388356e+05	2.215829e+05	2.253811e+05	2.368890e+05	2.430655e+05	2.544960e+05	2.617599e+05	2.681549e+05	2.761371e+05	2.809718e+05	2.822528e+05	2.838936e+05	2.836862e+05	2.794123e+05	2.754056e+05	2.722760e+05	2.626585e+05	2.598285e+05	2.620218e+05	2.596112e+05	2.694788e+05	2.768920e+05	2.842864e+05	2.960475e+05	3.018960e+05	3.093554e+05	3.165200e+05	3.212138e+05	3.256995e+05	3.292890e+05	3.320356e+05	3.347812e+05	3.374089e+05	3.400322e+05	3.441174e+05	3.486836e+05	3.497507e+05	3.694763e+05	
SCALARS Pressure double 1
LOOKUP_TABLE default
1.280095e+05	9.222618e+04	8.436522e+04	7.300620e+04	6.666085e+04	6.165525e+04	6.189642e+04	6.210012e+04	6.226129e+04	5.955190e+04	5.591204e+04	5.350776e+04	5.873440e+04	7.647771e+04	9.397972e+04	1.015527e+05	1.058184e+05	1.078660e+05	1.083710e+05	1.069203e+05	1.032729e+05	9.990010e+04	9.542344e+04	8.904309e+04	8.348245e+04	7.794052e+04	6.970251e+04	6.404702e+04	5.776693e+04	5.140987e+04	4.886802e+04	4.634692e+04	4.427846e+04	4.469167e+04	4.551327e+04	4.655204e+04	4.940936e+04	5.433958e+04	6.607321e+04	8.211766e+04	8.575312e+04	8.471575e+04	8.230381e+04	7.924040e+04	7.628620e+04	7.367800e+04	6.931779e+04	6.555671e+04	6.209205e+04	5.798158e+04	5.530263e+04	5.042413e+04	4.627193e+04	4.331965e+04	3.956072e+04	3.774072e+04	3.580825e+04	3.381620e+04	3.668856e+04	5.141984e+04	8.320159e+04	9.604372e+04	9.705490e+04	9.614695e+04	9.674357e+04	9.576379e+04	9.469611e+04	9.380280e+04	9.209182e+04	9.078630e+04	9.017034e+04	8.900825e+04	8.961183e+04	9.124439e+04	9.231656e+04	9.422247e+04	9.577498e+04	9.728432e+04	9.872197e+04	9.956418e+04	1.003121e+05	1.009236e+05	1.012322e+05	1.017061e+05	1.020265e+05	1.023100e+05	1.026723e+05	1.030358e+05	1.033893e+05	1.038440e+05	1.042665e+05	1.047628e+05	1.053039e+05	1.058469e+05	1.064545e+05	1.071580e+05	1.079534e+05	1.092341e+05	1.092509e+05	1.112260e+05	1.164375e+05	1.147653e+05	1.143996e+05	1.146904e+05	1.147551e+05	1.148416e+05	1.148828e+05	1.150385e+05	1.150552e+05	1.151053e+05	1.152041e+05	1.150382e+05	1.151763e+05	1.150238e+05	1.150814e+05	1.150911e+05	1.148986e+05	1.150259e+05	1.148518e+05	1.150665e+05	1.150132e+05	1.149757e+05	1.149399e+05	1.145866e+05	1.143974e+05	1.135478e+05	1.130165e+05	1.118196e+05	1.099701e+05	1.083245e+05	1.061395e+05	1.034647e+05	1.013787e+05	9.853653e+04	9.584318e+04	9.475083e+04	9.202909e+04	9.147305e+04	9.242861e+04	9.271544e+04	9.431879e+04	9.551716e+04	9.682735e+04	9.863989e+04	9.991121e+04	1.009563e+05	1.022756e+05	1.029820e+05	1.036151e+05	1.042186e+05	1.040111e+05	1.045812e+05	1.041193e+05	1.026457e+05	1.014354e+05	9.887918e+04	9.538786e+04	9.221378e+04	8.793315e+04	8.248587e+04	7.447489e+04	6.638298e+04	6.734289e+04	7.266699e+04	7.620720e+04	8.157071e+04	8.564000e+04	8.903616e+04	9.313887e+04	9.591568e+04	9.679196e+04	9.756258e+04	9.746881e+04	9.531529e+04	9.306393e+04	9.127543e+04	8.659790e+04	8.468951e+04	8.563650e+04	8.509538e+04	8.953080e+04	9.386293e+04	9.808303e+04	1.043049e+05	1.081310e+05	1.123586e+05	1.165649e+05	1.195927e+05	1.222969e+05	1.245647e+05	1.263834e+05	1.281765e+05	1.299509e+05	1.318120e+05	1.344449e+05	1.375234e+05	1.391822e+05	1.476550e+05	
SCALARS Temperature double 1
LOOKUP_TABLE default
2.919871e+02	2.765253e+02	2.682998e+02	2.576514e+02	2.491125e+02	2.444005e+02	2.437659e+02	2.439310e+02	2.429787e+02	2.400596e+02	2.350624e+02	2.329777e+02	2.402377e+02	2.616368e+02	2.759036e+02	2.809239e+02	2.835461e+02	2.848276e+02	2.848507e+02	2.833474e+02	2.808367e+02	2.780975e+02	2.739684e+02	2.687935e+02	2.639215e+02	2.579052e+02	2.504782e+02	2.444367e+02	2.365906e+02	2.295478e+02	2.259424e+02	2.223274e+02	2.197934e+02	2.198956e+02	2.207129e+02	2.221392e+02	2.266281e+02	2.317932e+02	2.456852e+02	2.602838e+02	2.631627e+02	2.624111e+02	2.603864e+02	2.577092e+02	2.551774e+02	2.523361e+02	2.482628e+02	2.444058e+02	2.404379e+02	2.361420e+02	2.324440e+02	2.266805e+02	2.214439e+02	2.166066e+02	2.117637e+02	2.084626e+02	2.056312e+02	2.019168e+02	2.098472e+02	2.379295e+02	2.724352e+02	2.796602e+02	2.797148e+02	2.795462e+02	2.798215e+02	2.791029e+02	2.784279e+02	2.775015e+02	2.761723e+02	2.752830e+02	2.744751e+02	2.737182e+02	2.744254e+02	2.755529e+02	2.767019e+02	2.782279e+02	2.795530e+02	2.808694e+02	2.819370e+02	2.826541e+02	2.832830e+02	2.836972e+02	2.840094e+02	2.843517e+02	2.846085e+02	2.848581e+02	2.851446e+02	2.854238e+02	2.857377e+02	2.860865e+02	2.864423e+02	2.868379e+02	2.872472e+02	2.876835e+02	2.881659e+02	2.886976e+02	2.893882e+02	2.901947e+02	2.917062e+02	2.893354e+02	2.832140e+02	2.832107e+02	2.836659e+02	2.835822e+02	2.836270e+02	2.837087e+02	2.837362e+02	2.838187e+02	2.838604e+02	2.838818e+02	2.839353e+02	2.838879e+02	2.838890e+02	2.838647e+02	2.838544e+02	2.838765e+02	2.837967e+02	2.837925e+02	2.837610e+02	2.838086e+02	2.838488e+02	2.838021e+02	2.837675e+02	2.835779e+02	2.833639e+02	2.828851e+02	2.823327e+02	2.815983e+02	2.803651e+02	2.790350e+02	2.775383e+02	2.755862e+02	2.737964e+02	2.717917e+02	2.695921e+02	2.684116e+02	2.666249e+02	2.657484e+02	2.664723e+02	2.670417e+02	2.680432e+02	2.692494e+02	2.702803e+02	2.716366e+02	2.727352e+02	2.735434e+02	2.744665e+02	2.751582e+02	2.756266e+02	2.760616e+02	2.760840e+02	2.762731e+02	2.761697e+02	2.751725e+02	2.740733e+02	2.724176e+02	2.696780e+02	2.668674e+02	2.635704e+02	2.588574e+02	2.514052e+02	2.438119e+02	2.433171e+02	2.482774e+02	2.524489e+02	2.567131e+02	2.607272e+02	2.636363e+02	2.667590e+02	2.691641e+02	2.700773e+02	2.705066e+02	2.704601e+02	2.690210e+02	2.671278e+02	2.655384e+02	2.622420e+02	2.599902e+02	2.605227e+02	2.610933e+02	2.637581e+02	2.677604e+02	2.713001e+02	2.755507e+02	2.789184e+02	2.817913e+02	2.846649e+02	2.869432e+02	2.887222e+02	2.902808e+02	2.915860e+02	2.928238e+02	2.940811e+02	2.954580e+02	2.971291e+02	2.991539e+02	3.010743e+02	3.019859e+02	
SCALARS Mach double 1
LOOKUP_TABLE default
4.178634e-01	6.811360e-01	7.946439e-01	9.296237e-01	1.032089e+00	1.087265e+00	1.094640e+00	1.092723e+00	1.103775e+00	1.137511e+00	1.194879e+00	1.218709e+00	1.135459e+00	8.802690e-01	6.901146e-01	6.151371e-01	5.732844e-01	5.519779e-01	5.515874e-01	5.765329e-01	6.164921e-01	6.580702e-01	7.175925e-01	7.881082e-01	8.514000e-01	9.265137e-01	1.015942e+00	1.086844e+00	1.177378e+00	1.257837e+00	1.298918e+00	1.340119e+00	1.369040e+00	1.367873e+00	1.358540e+00	1.342266e+00	1.291106e+00	1.232231e+00	1.072296e+00	8.971572e-01	8.610389e-01	8.705363e-01	8.958817e-01	9.289160e-01	9.597159e-01	9.938437e-01	1.042097e+00	1.087203e+00	1.133151e+00	1.182518e+00	1.224803e+00	1.290508e+00	1.350198e+00	1.405491e+00	1.461140e+00	1.499305e+00	1.532224e+00	1.575716e+00	1.483271e+00	1.162016e+00	7.389026e-01	6.345831e-01	6.337526e-01	6.363165e-01	6.321246e-01	6.430269e-01	6.531526e-01	6.668759e-01	6.862426e-01	6.990016e-01	7.104636e-01	7.210963e-01	7.111653e-01	6.951449e-01	6.785707e-01	6.561323e-01	6.362141e-01	6.159836e-01	5.992216e-01	5.877672e-01	5.775835e-01	5.708027e-01	5.656509e-01	5.599621e-01	5.556639e-01	5.514624e-01	5.466099e-01	5.418476e-01	5.364541e-01	5.304127e-01	5.241908e-01	5.172065e-01	5.098990e-01	5.020153e-01	4.931809e-01	4.832905e-01	4.701930e-01	4.544998e-01	4.237832e-01	4.712046e-01	5.787083e-01	5.787612e-01	5.713177e-01	5.726922e-01	5.719569e-01	5.706141e-01	5.701623e-01	5.688027e-01	5.681147e-01	5.677611e-01	5.668769e-01	5.676611e-01	5.676418e-01	5.680438e-01	5.682139e-01	5.678489e-01	5.691643e-01	5.692345e-01	5.697538e-01	5.689689e-01	5.683066e-01	5.690767e-01	5.696458e-01	5.727618e-01	5.762651e-01	5.840415e-01	5.929218e-01	6.045764e-01	6.237888e-01	6.440501e-01	6.663343e-01	6.946690e-01	7.200021e-01	7.477340e-01	7.774721e-01	7.931661e-01	8.165997e-01	8.279637e-01	8.185837e-01	8.111654e-01	7.980282e-01	7.820465e-01	7.682403e-01	7.498546e-01	7.347628e-01	7.235379e-01	7.105851e-01	7.007793e-01	6.940895e-01	6.878392e-01	6.875167e-01	6.847877e-01	6.862797e-01	7.005764e-01	7.161208e-01	7.391444e-01	7.763239e-01	8.134402e-01	8.558661e-01	9.148100e-01	1.004936e+00	1.094106e+00	1.099850e+00	1.041926e+00	9.924971e-01	9.410812e-01	8.916389e-01	8.550290e-01	8.148526e-01	7.831824e-01	7.709705e-01	7.651909e-01	7.658175e-01	7.850865e-01	8.100410e-01	8.306754e-01	8.726658e-01	9.008036e-01	8.941861e-01	8.870707e-01	8.534802e-01	8.017496e-01	7.544406e-01	6.951766e-01	6.458058e-01	6.015287e-01	5.547178e-01	5.153331e-01	4.828298e-01	4.527982e-01	4.262943e-01	3.997794e-01	3.711641e-01	3.373730e-01	2.916496e-01	2.250368e-01	1.357411e-01	5.724213e-02	
SCALARS Pressure_Coefficient double 1
LOOKUP_TABLE default