# vtk DataFile Version 3.0
vtk output
ASCII
DATASET UNSTRUCTURED_GRID
POINTS 1829 double
1.000000e+02	0.000000e+00	0.0	9.917900e+01	1.278772e+01	0.0	9.672949e+01	2.536546e+01	0.0	9.269168e+01	3.752670e+01	0.0	8.713187e+01	4.907176e+01	0.0	8.014136e+01	5.981105e+01	0.0	7.183494e+01	6.956826e+01	0.0	6.234898e+01	7.818315e+01	0.0	5.183926e+01	8.551428e+01	0.0	4.047833e+01	9.144126e+01	0.0	2.845276e+01	9.586679e+01	0.0	1.595999e+01	9.871818e+01	0.0	3.205158e+00	9.994862e+01	0.0	-9.602303e+00	9.953791e+01	0.0	-2.225209e+01	9.749279e+01	0.0	-3.453651e+01	9.384684e+01	0.0	-4.625383e+01	8.865993e+01	0.0	-5.721167e+01	8.201723e+01	0.0	-6.723009e+01	7.402780e+01	0.0	-7.614460e+01	6.482284e+01	0.0	-8.380881e+01	5.455349e+01	0.0	-9.009689e+01	4.338837e+01	0.0	-9.490557e+01	3.151082e+01	0.0	-9.815592e+01	1.911586e+01	0.0	-9.979454e+01	6.407022e+00	0.0	-9.979454e+01	-6.407022e+00	0.0	-9.815592e+01	-1.911586e+01	0.0	-9.490557e+01	-3.151082e+01	0.0	-9.009689e+01	-4.338837e+01	0.0	-8.380881e+01	-5.455349e+01	0.0	-7.614460e+01	-6.482284e+01	0.0	-6.723009e+01	-7.402780e+01	0.0	-5.721167e+01	-8.201723e+01	0.0	-4.625383e+01	-8.865993e+01	0.0	-3.453651e+01	-9.384684e+01	0.0	-2.225209e+01	-9.749279e+01	0.0	-9.602303e+00	-9.953791e+01	0.0	3.205158e+00	-9.994862e+01	0.0	1.595999e+01	-9.871818e+01	0.0	2.845276e+01	-9.586679e+01	0.0	4.047833e+01	-9.144126e+01	0.0	5.183926e+01	-8.551428e+01	0.0	6.234898e+01	-7.818315e+01	0.0	7.183494e+01	-6.956826e+01	0.0	8.014136e+01	-5.981105e+01	0.0	8.713187e+01	-4.907176e+01	0.0	9.269168e+01	-3.752670e+01	0.0	9.672949e+01	-2.536546e+01	0.0	9.917900e+01	-1.278772e+01	0.0	0.000000e+00	0.000000e+00	0.0	3.475246e-03	3.594811e-03	0.0	7.234599e-03	7.141079e-03	0.0	1.170134e-02	1.014082e-02	0.0	1.643129e-02	1.307970e-02	0.0	2.161675e-02	1.563525e-02	0.0	2.704677e-02	1.814821e-02	0.0	3.284434e-02	2.034777e-02	0.0	3.887292e-02	2.254478e-02	0.0	4.517578e-02	2.463083e-02	0.0	5.166430e-02	2.687021e-02	0.0	5.833145e-02	2.929574e-02	0.0	6.505764e-02	3.218582e-02	0.0	7.189530e-02	3.542442e-02	0.0	7.867499e-02	3.928336e-02	0.0	8.559328e-02	4.340031e-02	0.0	9.278504e-02	4.753821e-02	0.0	1.002032e-01	5.178051e-02	0.0	1.082726e-01	5.528478e-02	0.0	1.165737e-01	5.888970e-02	0.0	1.255843e-01	6.120095e-02	0.0	1.348482e-01	6.355524e-02	0.0	1.445240e-01	6.512785e-02	0.0	1.544960e-01	6.650891e-02	0.0	1.647421e-01	6.772031e-02	0.0	1.752714e-01	6.866897e-02	0.0	1.860491e-01	6.964002e-02	0.0	1.970766e-01	7.058670e-02	0.0	2.083466e-01	7.155091e-02	0.0	2.198555e-01	7.252524e-02	0.0	2.315990e-01	7.350465e-02	0.0	2.435702e-01	7.450304e-02	0.0	2.557932e-01	7.501750e-02	0.0	2.682351e-01	7.547911e-02	0.0	2.808812e-01	7.551352e-02	0.0	2.937210e-01	7.484203e-02	0.0	3.067508e-01	7.416061e-02	0.0	3.198250e-01	7.220346e-02	0.0	3.330490e-01	7.005020e-02	0.0	3.463945e-01	6.767863e-02	0.0	3.598223e-01	6.493812e-02	0.0	3.733826e-01	6.217057e-02	0.0	3.871614e-01	5.992868e-02	0.0	4.010682e-01	5.778125e-02	0.0	4.151234e-01	5.623142e-02	0.0	4.293686e-01	5.591134e-02	0.0	4.436811e-01	5.558974e-02	0.0	4.579918e-01	5.673976e-02	0.0	4.723315e-01	5.812354e-02	0.0	4.866831e-01	5.961155e-02	0.0	5.010252e-01	6.126068e-02	0.0	5.153598e-01	6.290895e-02	0.0	5.297513e-01	6.346056e-02	0.0	5.441133e-01	6.389916e-02	0.0	5.583815e-01	6.340527e-02	0.0	5.725299e-01	6.171589e-02	0.0	5.865972e-01	6.003618e-02	0.0	6.003507e-01	5.707919e-02	0.0	6.139842e-01	5.406661e-02	0.0	6.274613e-01	5.092518e-02	0.0	6.407507e-01	4.757748e-02	0.0	6.538972e-01	4.426580e-02	0.0	6.669790e-01	4.137784e-02	0.0	6.799150e-01	3.861375e-02	0.0	6.927067e-01	3.606190e-02	0.0	7.054130e-01	3.409670e-02	0.0	7.179223e-01	3.216196e-02	0.0	7.302812e-01	3.068167e-02	0.0	7.424499e-01	2.940875e-02	0.0	7.544064e-01	2.826566e-02	0.0	7.661676e-01	2.752844e-02	0.0	7.776951e-01	2.680586e-02	0.0	7.889978e-01	2.638673e-02	0.0	8.000601e-01	2.603256e-02	0.0	8.108774e-01	2.573784e-02	0.0	8.214464e-01	2.548811e-02	0.0	8.317612e-01	2.516712e-02	0.0	8.418184e-01	2.471912e-02	0.0	8.516178e-01	2.422661e-02	0.0	8.611364e-01	2.335606e-02	0.0	8.704017e-01	2.250869e-02	0.0	8.793816e-01	2.139524e-02	0.0	8.881014e-01	2.022913e-02	0.0	8.965616e-01	1.902353e-02	0.0	9.047522e-01	1.769726e-02	0.0	9.126992e-01	1.641042e-02	0.0	9.203907e-01	1.507501e-02	0.0	9.278416e-01	1.376081e-02	0.0	9.350560e-01	1.247334e-02	0.0	9.420355e-01	1.120041e-02	0.0	9.487889e-01	9.968422e-03	0.0	9.553144e-01	8.745670e-03	0.0	9.616223e-01	7.563693e-03	0.0	9.677130e-01	6.400690e-03	0.0	9.735946e-01	5.273724e-03	0.0	9.792690e-01	4.169006e-03	0.0	9.847432e-01	3.096450e-03	0.0	9.900210e-01	2.049953e-03	0.0	9.951063e-01	1.024128e-03	0.0	1.000000e+00	0.000000e+00	0.0	9.950042e-01	1.993891e-04	0.0	9.898193e-01	3.999450e-04	0.0	9.844389e-01	5.501112e-04	0.0	9.788587e-01	6.539101e-04	0.0	9.730741e-01	7.322246e-04	0.0	9.670802e-01	7.503278e-04	0.0	9.608729e-01	7.450711e-04	0.0	9.544475e-01	6.741303e-04	0.0	9.477995e-01	5.864915e-04	0.0	9.409261e-01	4.049881e-04	0.0	9.338212e-01	2.173748e-04	0.0	9.264844e-01	-7.423223e-05	0.0	9.189092e-01	-3.963116e-04	0.0	9.110936e-01	-7.681283e-04	0.0	9.030354e-01	-1.214317e-03	0.0	8.947290e-01	-1.674255e-03	0.0	8.861754e-01	-2.209153e-03	0.0	8.773694e-01	-2.766338e-03	0.0	8.683103e-01	-3.357621e-03	0.0	8.589970e-01	-3.987377e-03	0.0	8.494278e-01	-4.637103e-03	0.0	8.396038e-01	-5.327610e-03	0.0	8.295238e-01	-6.036110e-03	0.0	8.191914e-01	-6.799359e-03	0.0	8.086060e-01	-7.587519e-03	0.0	7.977723e-01	-8.432849e-03	0.0	7.866919e-01	-9.319521e-03	0.0	7.753697e-01	-1.026226e-02	0.0	7.638121e-01	-1.128832e-02	0.0	7.520188e-01	-1.233531e-02	0.0	7.400364e-01	-1.379257e-02	0.0	7.278316e-01	-1.528300e-02	0.0	7.154724e-01	-1.719928e-02	0.0	7.029677e-01	-1.954785e-02	0.0	6.902649e-01	-2.193363e-02	0.0	6.776312e-01	-2.545327e-02	0.0	6.648350e-01	-2.907932e-02	0.0	6.519750e-01	-3.306767e-02	0.0	6.391583e-01	-3.771428e-02	0.0	6.262013e-01	-4.241175e-02	0.0	6.130853e-01	-4.707089e-02	0.0	5.998388e-01	-5.173351e-02	0.0	5.864617e-01	-5.634516e-02	0.0	5.726344e-01	-5.979243e-02	0.0	5.587268e-01	-6.325969e-02	0.0	5.445500e-01	-6.549821e-02	0.0	5.301409e-01	-6.664379e-02	0.0	5.156912e-01	-6.768077e-02	0.0	5.011833e-01	-6.720527e-02	0.0	4.866677e-01	-6.672953e-02	0.0	4.721648e-01	-6.612844e-02	0.0	4.576879e-01	-6.545034e-02	0.0	4.432481e-01	-6.496779e-02	0.0	4.288555e-01	-6.546846e-02	0.0	4.145310e-01	-6.596675e-02	0.0	4.003752e-01	-6.747471e-02	0.0	3.863503e-01	-6.938042e-02	0.0	3.724536e-01	-7.139095e-02	0.0	3.587400e-01	-7.377366e-02	0.0	3.451612e-01	-7.613295e-02	0.0	3.316800e-01	-7.815335e-02	0.0	3.183404e-01	-8.003750e-02	0.0	3.051447e-01	-8.162581e-02	0.0	2.920464e-01	-8.233374e-02	0.0	2.791403e-01	-8.303128e-02	0.0	2.664238e-01	-8.299217e-02	0.0	2.539135e-01	-8.272110e-02	0.0	2.416281e-01	-8.229626e-02	0.0	2.295871e-01	-8.144919e-02	0.0	2.177766e-01	-8.061833e-02	0.0	2.062178e-01	-7.961239e-02	0.0	1.949042e-01	-7.857016e-02	0.0	1.838445e-01	-7.746413e-02	0.0	1.730582e-01	-7.614488e-02	0.0	1.625220e-01	-7.485621e-02	0.0	1.523194e-01	-7.307924e-02	0.0	1.423941e-01	-7.118268e-02	0.0	1.327841e-01	-6.908036e-02	0.0	1.236196e-01	-6.625109e-02	0.0	1.147004e-01	-6.349756e-02	0.0	1.063033e-01	-6.008801e-02	0.0	9.826619e-02	-5.644665e-02	0.0	9.047848e-02	-5.287242e-02	0.0	8.319968e-02	-4.884406e-02	0.0	7.613846e-02	-4.493612e-02	0.0	6.933026e-02	-4.108053e-02	0.0	6.278345e-02	-3.725618e-02	0.0	5.644318e-02	-3.355248e-02	0.0	5.016389e-02	-3.022426e-02	0.0	4.407695e-02	-2.702635e-02	0.0	3.807988e-02	-2.416044e-02	0.0	3.224023e-02	-2.147920e-02	0.0	2.660069e-02	-1.888528e-02	0.0	2.118257e-02	-1.632728e-02	0.0	1.615954e-02	-1.345723e-02	0.0	1.149613e-02	-1.040975e-02	0.0	7.184059e-03	-7.188386e-03	0.0	3.340088e-03	-3.705722e-03	0.0	7.130238e-01	-9.926740e-02	0.0	7.339936e-01	-1.421676e-01	0.0	7.492983e-01	-1.042526e-01	0.0	8.046322e+01	3.899026e+01	0.0	7.907102e+01	2.749437e+01	0.0	8.701821e+01	2.915505e+01	0.0	9.165723e+01	5.306386e+00	0.0	8.892845e+01	-5.313269e+00	0.0	7.728284e+01	4.983148e+01	0.0	7.923784e+01	-2.403731e+00	0.0	7.853254e+01	-1.304447e+01	0.0	8.373812e+01	-2.597833e+01	0.0	8.955905e+01	-1.688598e+01	0.0	5.183500e+01	2.471472e+01	0.0	4.173885e+01	2.015564e+01	0.0	5.068960e+01	1.482957e+01	0.0	4.296800e+01	-5.530767e+01	0.0	5.421114e+01	-4.733882e+01	0.0	4.490295e+01	-4.204184e+01	0.0	6.124838e+01	6.650206e+01	0.0	6.785929e+01	5.632919e+01	0.0	5.037278e+01	7.139950e+01	0.0	5.283259e+01	5.587035e+01	0.0	4.022374e+01	-7.041225e+01	0.0	5.025600e+01	-6.477984e+01	0.0	7.258359e+01	-4.219980e+01	0.0	7.457841e+01	-5.211739e+01	0.0	4.084764e+01	7.958767e+01	0.0	6.816388e+01	-5.935781e+01	0.0	1.381519e+01	8.194194e+01	0.0	1.936591e+01	8.843486e+01	0.0	7.450559e+00	8.810162e+01	0.0	5.989706e+01	-6.711563e+01	0.0	5.143061e+01	-7.439363e+01	0.0	4.401859e+01	-8.035664e+01	0.0	3.615333e+01	-8.062430e+01	0.0	1.512709e+01	7.468843e+01	0.0	6.365260e+00	7.717718e+01	0.0	2.733838e+01	-7.402301e+01	0.0	2.182969e+01	3.682848e+01	0.0	2.794168e+01	2.719233e+01	0.0	3.633979e+01	3.855011e+01	0.0	1.590683e+01	1.502605e+01	0.0	8.665419e+00	1.673192e+01	0.0	1.179789e+01	9.746859e+00	0.0	6.144154e+00	8.977077e+00	0.0	3.748137e+00	5.602632e+00	0.0	6.221370e+00	4.594262e+00	0.0	2.742181e+00	5.176812e-01	0.0	3.109948e+00	-2.318714e-01	0.0	3.635651e+00	6.915110e-01	0.0	1.033867e+00	-6.060184e-02	0.0	1.047862e+00	-3.783700e-02	0.0	1.026822e+00	-4.104578e-02	0.0	1.076380e+00	1.103557e-01	0.0	1.101964e+00	6.042255e-02	0.0	1.156228e+00	1.068194e-01	0.0	1.032988e+00	5.997979e-02	0.0	1.016513e+00	7.944180e-02	0.0	1.012642e+00	5.709122e-02	0.0	1.002899e+00	3.839909e-03	0.0	9.985165e-01	3.417684e-03	0.0	1.163519e+00	8.364114e-01	0.0	8.132314e-01	9.041333e-01	0.0	9.359500e-01	5.774201e-01	0.0	9.946209e-01	4.767174e-03	0.0	9.831378e-01	7.891899e-03	0.0	9.883770e-01	6.532257e-03	0.0	8.751541e-01	1.598547e-01	0.0	9.056781e-01	2.299468e-01	0.0	8.425358e-01	2.022909e-01	0.0	9.731224e-01	9.193512e-03	0.0	9.703392e-01	1.218953e-02	0.0	9.588274e-01	1.372489e-02	0.0	9.556942e-01	2.109680e-02	0.0	9.525202e-01	1.425733e-02	0.0	9.740191e-01	2.902818e-02	0.0	9.639479e-01	2.607020e-02	0.0	9
[...]
POINT_DATA 1829

SCALARS Density double 1
LOOKUP_TABLE default
1.291316e+00	1.291465e+00	1.291975e+00	1.292218e+00	1.292138e+00	1.292076e+00	1.292054e+00	1.292016e+00	1.291965e+00	1.291924e+00	1.291891e+00	1.291880e+00	1.291893e+00	1.291939e+00	1.292013e+00	1.292081e+00	1.292147e+00	1.292195e+00	1.292232e+00	1.292258e+00	1.292276e+00	1.292291e+00	1.292301e+00	1.292310e+00	1.292318e+00	1.292326e+00	1.292336e+00	1.292347e+00	1.292361e+00	1.292380e+00	1.292404e+00	1.292434e+00	1.292472e+00	1.292518e+00	1.292574e+00	1.292639e+00	1.292699e+00	1.292744e+00	1.292746e+00	1.292718e+00	1.292673e+00	1.292615e+00	1.292551e+00	1.292490e+00	1.292420e+00	1.292374e+00	1.292395e+00	1.292288e+00	1.291829e+00	1.561708e+00	1.271399e+00	1.309569e+00	1.263635e+00	1.251145e+00	1.245282e+00	1.251993e+00	1.265612e+00	1.294359e+00	1.318360e+00	1.344456e+00	1.361818e+00	1.364530e+00	1.356239e+00	1.327142e+00	1.260463e+00	1.197476e+00	1.091341e+00	1.000223e+00	8.956175e-01	8.036379e-01	7.515508e-01	6.963225e-01	6.821089e-01	6.705472e-01	6.689212e-01	6.822398e-01	6.956883e-01	7.092960e-01	7.230135e-01	7.373424e-01	7.208360e-01	7.000263e-01	6.871049e-01	6.431794e-01	6.180439e-01	5.743487e-01	5.158930e-01	5.038629e-01	4.934212e-01	4.797736e-01	5.197026e-01	6.912924e-01	1.080164e+00	1.190254e+00	1.192470e+00	1.183165e+00	1.177643e+00	1.140977e+00	1.113840e+00	1.080470e+00	1.017269e+00	9.735886e-01	9.453959e-01	9.044550e-01	9.352732e-01	9.813537e-01	1.022859e+00	1.083288e+00	1.111583e+00	1.141509e+00	1.171143e+00	1.187191e+00	1.195252e+00	1.210230e+00	1.213704e+00	1.216190e+00	1.221515e+00	1.218799e+00	1.221458e+00	1.218891e+00	1.215036e+00	1.211952e+00	1.203630e+00	1.198069e+00	1.190578e+00	1.181608e+00	1.177662e+00	1.170564e+00	1.170892e+00	1.175365e+00	1.176971e+00	1.186145e+00	1.189782e+00	1.197183e+00	1.204462e+00	1.209528e+00	1.216551e+00	1.221395e+00	1.226562e+00	1.231145e+00	1.235862e+00	1.240760e+00	1.245312e+00	1.250210e+00	1.255149e+00	1.261365e+00	1.269351e+00	1.265539e+00	1.290130e+00	1.389835e+00	1.368794e+00	1.367701e+00	1.372180e+00	1.373427e+00	1.374199e+00	1.375049e+00	1.376572e+00	1.376465e+00	1.377062e+00	1.377516e+00	1.375414e+00	1.375867e+00	1.373775e+00	1.372643e+00	1.371813e+00	1.369754e+00	1.369316e+00	1.368372e+00	1.368277e+00	1.368340e+00	1.369159e+00	1.370252e+00	1.371546e+00	1.373480e+00	1.375756e+00	1.379025e+00	1.381383e+00	1.391034e+00	1.394984e+00	1.397898e+00	1.407111e+00	1.400164e+00	1.409393e+00	1.407103e+00	1.387488e+00	1.383590e+00	1.362419e+00	1.327857e+00	1.295349e+00	1.259203e+00	1.195027e+00	1.092629e+00	9.089888e-01	8.401750e-01	8.926221e-01	9.431449e-01	1.032351e+00	1.136888e+00	1.184762e+00	1.236373e+00	1.291354e+00	1.309020e+00	1.324476e+00	1.333966e+00	1.309376e+00	1.293786e+00	1.267814e+00	1.228522e+00	1.187681e+00	1.046043e+00	8.527551e-01	8.217632e-01	8.521132e-01	8.929676e-01	9.529343e-01	9.788561e-01	1.016279e+00	1.049991e+00	1.066329e+00	1.077463e+00	1.073210e+00	1.066387e+00	1.039554e+00	1.032723e+00	1.041478e+00	1.029807e+00	1.070678e+00	1.105233e+00	1.140357e+00	1.222657e+00	1.257842e+00	1.306296e+00	1.363698e+00	1.395174e+00	1.428346e+00	1.464517e+00	1.485322e+00	1.501460e+00	1.516099e+00	1.521383e+00	1.529811e+00	1.532874e+00	1.545460e+00	1.566499e+00	1.597338e+00	1.609255e+00	1.686334e+00	1.365957e+00	1.351928e+00	1.371254e+00	1.292125e+00	1.292064e+00	1.292124e+00	1.291459e+00	1.291703e+00	1.292070e+00	1.291761e+00	1.292061e+00	1.292311e+00	1.292078e+00	1.292044e+00	1.291996e+00	1.291893e+00	1.292587e+00	1.292476e+00	1.292512e+00	1.292008e+00	1.292032e+00	1.291956e+00	1.291962e+00	1.292647e+00	1.292575e+00	1.292367e+00	1.292402e+00	1.291910e+00	1.292461e+00	1.291799e+00	1.291844e+00	1.291835e+00	1.292526e+00	1.292591e+00	1.292640e+00	1.292682e+00	1.291767e+00	1.291768e+00	1.292740e+00	1.291572e+00	1.291716e+00	1.291844e+00	1.291521e+00	1.290264e+00	1.291355e+00	1.289129e+00	1.286839e+00	1.291038e+00	1.284692e+00	1.285347e+00	1.286143e+00	1.339118e+00	1.341401e+00	1.342724e+00	1.288520e+00	1.266106e+00	1.283844e+00	1.274040e+00	1.274613e+00	1.272373e+00	1.286363e+00	1.280918e+00	1.278798e+00	1.232296e+00	1.268151e+00	1.276579e+00	1.260210e+00	1.264919e+00	1.255325e+00	1.267499e+00	1.254956e+00	1.250675e+00	1.248846e+00	1.240039e+00	1.239641e+00	1.235509e+00	1.253649e+00	1.246583e+00	1.250162e+00	1.234337e+00	1.187085e+00	1.178406e+00	1.180993e+00	1.376935e+00	1.377249e+00	1.377333e+00	1.373487e+00	1.374358e+00	1.371298e+00	1.391294e+00	1.386796e+00	9.907348e-01	1.257710e+00	1.251158e+00	1.239674e+00	1.061174e+00	1.081009e+00	1.041248e+00	1.377256e+00	1.377948e+00	1.378290e+00	1.376777e+00	1.376311e+00	1.375699e+00	1.376663e+00	8.334082e-01	1.167121e+00	1.159764e+00	1.157905e+00	1.024231e+00	1.048442e+00	1.013735e+00	9.844360e-01	9.905978e-01	9.508749e-01	9.841992e-01	5.186638e-01	5.196521e-01	1.037347e+00	1.056742e+00	1.086631e+00	1.141367e+00	1.098869e+00	1.059480e+00	1.126631e+00	1.114864e+00	1.377783e+00	1.377123e+00	1.377668e+00	8.161066e-01	9.753613e-01	1.156526e+00	1.173837e+00	1.170862e+00	1.041302e+00	1.283955e+00	1.283081e+00	1.277844e+00	1.174369e+00	1.173795e+00	1.177936e+00	1.191657e+00	1.186175e+00	5.627038e-01	5.101875e-01	5.389573e-01	1.268045e+00	1.273973e+00	1.287760e+00	1.219545e+00	1.219090e+00	1.191728e+00	1.233782e+00	1.204963e+00	8.426288e-01	8.563017e-01	8.788880e-01	1.140598e+00	1.131592e+00	1.066998e+00	1.250147e+00	1.302432e+00	1.288972e+00	1.283739e+00	8.967754e-01	1.248484e+00	1.262787e+00	1.010190e+00	1.038019e+00	1.007226e+00	1.294733e+00	1.287659e+00	1.305117e+00	1.010134e+00	1.054945e+00	1.249413e+00	1.252841e+00	1.041534e+00	1.213565e+00	1.215165e+00	1.219686e+00	1.217926e+00	1.214392e+00	1.195854e+00	1.194230e+00	1.203017e+00	1.329661e+00	1.348973e+00	1.203212e+00	1.208602e+00	1.207672e+00	1.195780e+00	1.183309e+00	1.251010e+00	1.186627e+00	1.193451e+00	1.234301e+00	1.224475e+00	1.225486e+00	1.193431e+00	1.268362e+00	1.283999e+00	1.214326e+00	1.222315e+00	1.211941e+00	1.217377e+00	1.214348e+00	1.215471e+00	1.209927e+00	1.204642e+00	1.211816e+00	1.206251e+00	1.198746e+00	1.213293e+00	1.219182e+00	1.268298e+00	1.282100e+00	1.278728e+00	1.368712e+00	1.370738e+00	1.361903e+00	1.375451e+00	1.373452e+00	1.373642e+00	1.373336e+00	1.374548e+00	1.374856e+00	1.376372e+00	1.375806e+00	1.514913e+00	1.529607e+00	1.511913e+00	1.642513e+00	1.404234e+00	1.391765e+00	1.436084e+00	1.611211e+00	1.561856e+00	1.576554e+00	1.554619e+00	1.619001e+00	1.559809e+00	1.577701e+00	1.517012e+00	1.509013e+00	1.518667e+00	1.465382e+00	1.423476e+00	1.213357e+00	1.227108e+00	1.273353e+00	1.145266e+00	1.219698e+00	1.121661e+00	1.014269e+00	8.925212e-01	1.024040e+00	1.083944e+00	1.163195e+00	1.120447e+00	1.170466e+00	1.310401e+00	1.371612e+00	1.335337e+00	6.993200e-01	7.282772e-01	1.325212e+00	1.299204e+00	1.279753e+00	1.370820e+00	1.371118e+00	1.376983e+00	1.377447e+00	1.375434e+00	1.126606e+00	1.260466e+00	1.246524e+00	1.214286e+00	1.305918e+00	1.279200e+00	1.230117e+00	1.225664e+00	1.231617e+00	1.197706e+00	1.203068e+00	1.291825e+00	1.291815e+00	1.291715e+00	1.215473e+00	1.152971e+00	1.147060e+00	5.571963e-01	6.062508e-01	6.911485e-01	4.881799e-01	5.028390e-01	1.291921e+00	7.334817e-01	7.450292e-01	7.229260e-01	1.177287e+00	1.019460e+00	9.874023e-01	4.931417e-01	5.415030e-01	6.443553e-01	6.073460e-01	6.756065e-01	6.447639e-01	6.794930e-01	7.529405e-01	7.192716e-01	7.502453e-01	7.308877e-01	7.351209e-01	7.446558e-01	7.535503e-01	1.292010e+00	1.291938e+00	1.207532e+00	1.159708e+00	1.089130e+00	7.810070e-01	1.292064e+00	1.292131e+00	1.292051e+00	1.291571e+00	1.287817e+00	1.290513e+00	1.291242e+00	1.297993e+00	1.295811e+00	1.292121e+00	1.345737e+00	1.344165e+00	1.355785e+00	1.356109e+00	1.292186e+00	1.292229e+00	1.292208e+00	1.314689e+00	1.344976e+00	1.351355e+00	1.349112e+00	1.341312e+00	1.292319e+00	1.292256e+00	1.292244e+00	1.293103e+00	1.316418e+00	1.310059e+00	1.292247e+00	1.292335e+00	1.292376e+00	1.292265e+00	1.292263e+00	1.292221e+00	1.292276e+00	1.292293e+00	1.292308e+00	1.292314e+00	1.292289e+00	1.292332e+00	1.292350e+00	1.292335e+00	1.292348e+00	1.292355e+00	1.292370e+00	1.292403e+00	1.292417e+00	1.292463e+00	1.292451e+00	1.292515e+00	1.292401e+00	1.292378e+00	1.292492e+00	1.292427e+00	1.292545e+00	1.292355e+00	1.292386e+00	1.292544e+00	1.277454e+00	1.292489e+00	1.341904e+00	1.361772e+00	1.344981e+00	1.298038e+00	1.298760e+00	1.300076e+00	1.292557e+00	1.364586e+00	1.319623e+00	1.503517e+00	1.293374e+00	1.293107e+00	1.293083e+00	1.461823e+00	1.432555e+00	1.449803e+00	1.292725e+00	1.292619e+00	1.292652e+00	1.448945e+00	1.433410e+00	1.341404e+00	1.318450e+00	1.360433e+00	1.302414e+00	1.300823e+00	1.303384e+00	1.292823e+00	1.292902e+00	1.292851e+00	1.358246e+00	1.338764e+00	1.324182e+00	1.364925e+00	1.347179e+00	1.209604e+00	1.281438e+00	1.221754e+00	1.292715e+00	1.292758e+00	1.292789e+00	1.293932e+00	1.272636e+00	1.256361e+00	1.202068e+00	1.195363e+00	1.238780e+00	1.081354e+00	1.075524e+00	1.148278e+00	1.186087e+00	1.175907e+00	1.194384e+00	1.144154e+00	1.120522e+00	1.159509e+00	1.162340e+00	1.164362e+00	1.057753e+00	1.063606e+00	1.283093e+00	1.231860e+00	1.210545e+00	1.077649e+00	1.082246e+00	1.091030e+00	1.293092e+00	1.293299e+00	1.062348e+00	1.301826e+00	1.125681e+00	1.177676e+00	1.160347e+00	1.292722e+00	1.292760e+00	1.239964e+00	1.274025e+00	1.264158e+00	1.249593e+00	1.166088e+00	1.205755e+00	1.207735e+00	1.294980e+00	1.294527e+00	1.295822e+00	1.373594e+00	1.376988e+00	1.374820e+00	1.377232e+00	1.379941e+00	1.379270e+00	1.378692e+00	1.343716e+00	1.362818e+00	1.395916e+00	1.394934e+00	1.393916e+00	1.398246e+00	1.394766e+00	1.296124e+00	1.396982e+00	1.390909e+00	1.402252e+00	1.258259e+00	1.240744e+00	1.284437e+00	1.162010e+00	1.402119e+00	1.298521e+00	1.296964e+00	1.296689e+00	1.395997e+00	1.385844e+00	1.008288e+00	9.739946e-01	9.355244e-01	1.292319e+00	1.282996e+00	1.284679e+00	1.292880e+00	1.292841e+00	1.292707e+00	1.376027e+00	1.375300e+00	1.375171e+00	1.291719e+00	1.291518e+00	1.291683e+00	1.293113e+00	1.292816e+00	1.292925e+00	1.292357e+00	1.292335e+00	1.291412e+00	1.291496e+00	1.291084e+00	1.291892e+00	1.291894e+00	1.293083e+00	1.292992e+00	1.292627e+00	1.292696e+00	1.292503e+00	1.292508e+00	1.292560e+00	1.291369e+00	1.292056e+00	1.291973e+00	1.292158e+00	1.408370e+00	1.357676e+00	1.368490e+00	1.291691e+00	1.291934e+00	1.291935e+00	1.291730e+00	1.291800e+00	1.292023e+00	1.291893e+00	1.293172e+00	1.292542e+00	1.292834e+00	1.292397e+00	1.485503e+00	1.494652e+00	1.291749e+00	1.290777e+00	1.291396e+00	1.292045e+00	1.292188e+00	1.291852e+00	1.292529e+00	1.292535e+00	1.292739e+00	1.292572e+00	1.292369e+00	1.292388e+00	1.292417e+00	1.292317e+00	1.292302e+00	1.292770e+00	1.292310e+00	1.292507e+00	1.292568e+00	1.291731e+00	1.291874e+00	1.292122e+00	1.292031e+00	1.292130e+00	1.292590e+00	1.292532e+00	1.291911e+00	1.291922e+00	1.291964e+00	1.292297e+00	1.291818e+00	1.291696e+00	1.291756e+00	1.292342e+00	1.292347e+00	1.292623e+00	1.290423e+00	1.290121e+00	1.289031e+00	1.290380e+00	1.291052e+00	1.291608e+00	1.291835e+00	1.291984e+00	1.292808e+00	1.292797e+00	1.292943e+00	1.292432e+00	1.292431e+00	1.292388e+00	1.293638e+00	1.293959e+00	1.294347e+00	1.292676e+00	1.291875e+00	1.291642e+00	1.291958e+00	1.290741e+00	1.291189e+00	1.291675e+00	1.292112e+00	1.291990e+00	1.292207e+00	1.293324e+00	1.292377e+00	1.292661e+00	1.292631e+00	1.292446e+00	1.291908e+00	1.291857e+00	1.292495e+00	1.292430e+00	1.292317e+00	1.292008e+00	1.292710e+00	1.293324e+00	1.292807e+00	1.292126e+00	1.292772e+00	1.292449e+00	1.292353e+00	1.292903e+00	1.292810e+00	1.292703e+00	1.291840e+00	1.291626e+00	1.291755e+00	1.292134e+00	1.291867e+00	1.291718e+00	1.291808e+00	1.291814e+00	1.291879e+00	1.294417e+00	1.294615e+00	1.296848e+00	1.292885e+00	1.292968e+00	1.291813e+00	1.291712e+00	1.292848e+00	1.292952e+00	1.292853e+00	1.292078e+00	1.292146e+00	1.292080e+00	1.292048e+00	1.291995e+00	1.291995e+00	1.292428e+00	1.292403e+00	1.292592e+00	1.292591e+00	1.292713e+00	1.291953e+00	1.291606e+00	1.293587e+00	1.292186e+00	1.292238e+00	1.292511e+00	1.291176e+00	1.292466e+00	1.291570e+00	1.291402e+00	1.291902e+00	1.291609e+00	1.291705e+00	1.292015e+00	1.292598e+00	1.292701e+00	1.292951e+00	1.102059e+00	1.181553e+00	1.291677e+00	1.292880e+00	1.287351e+00	1.292268e+00	1.291821e+00	1.291909e+00	1.296305e+00	1.294964e+00	1.294524e+00	1.293500e+00	1.294524e+00	1.290668e+00	1.291348e+00	7.864139e-01	8.132391e-01	7.518302e-01	1.291858e+00	1.289642e+00	1.290508e+00	1.289137e+00	1.291876e+00	1.285939e+00	1.291072e+00	1.293943e+00	1.293231e+00	1.293137e+00	1.293858e+00	1.289910e+00	1.294075e+00	1.294608e+00	1.292570e+00	1.294847e+00	1.291891e+00	1.286826e+00	1.294015e+00	1.291906e+00	1.288522e+00	1.286191e+00	1.300097e+00	1.299286e+00	1.292906e+00	1.293069e+00	1.297547e+00	1.296812e+00	1.292704e+00	1.295801e+00	1.290246e+00	1.294108e+00	1.291915e+00	1.295211e+00	1.296184e+00	1.281905e+00	1.291331e+00	1.287749e+00	1.291416e+00	1.290715e+00	1.303677e+00	1.295997e+00	1.297150e+00	1.297918e+00	1.286089e+00	1.291319e+00	1.293761e+00	1.298440e+00	1.409382e+00	1.471613e+00	1.444813e+00	1.299596e+00	1.302430e+00	1.305165e+00	1.037657e+00	1.287722e+00	1.298100e+00	1.298337e+00	1.297174e+00	8.630637e-01	9.247076e-01	9.291923e-01	1.270777e+00	1.281621e+00	1.312827e+00	1.304377e+00	1.288505e+00	1.259294e+00	1.295495e+00	1.300737e+00	1.285605e+00	1.289050e+00	1.306460e+00	1.303602e+00	1.298451e+00	1.301284e+00	1.302513e+00	1.269884e+00	1.276523e+00	1.248630e+00	1.293970e+00	1.275775e+00	1.274161e+00	1.296941e+00	1.298918e+00	1.295699e+00	1.311912e+00	1.306717e+00	1.291938e+00	1.314996e+00	1.307467e+00	1.310425e+00	1.281965e+00	1.299916e+00	1.298065e+00	1.301783e+00	6.929242e-01	1.102583e+00	1.151482e+00	1.113693e+00	1.293944e+00	1.309560e+00	1.417000e+00	1.404812e+00	1.436676e+00	1.305084e+00	1.299012e+00	1.304450e+00	1.280810e+00	1.371793e+00	1.372252e+00	1.210723e+00	1.287187e+00	1.361372e+00	1.369680e+00	1.365268e+00	1.294108e+00	1.289025e+00	1.266175e+00	1.321661e+00	1.317288e+00	1.316878e+00	1.330952e+00	1.315720e+00	1.328274e+00	1.305819e+00	1.283164e+00	1.227961e+00	1.279708e+00	1.302763e+00	1.339107e+00	1.329200e+00	1.325989e+00	1.307202e+00	1.276145e+00	1.273375e+00	1.288375e+00	1.243512e+00	1.337208e+00	1.307586e+00	1.305990e+00	1.310825e+00	1.168582e+00	7.703931e-01	7.806712e-01	7.982639e-01	1.283822e+00	1.260796e+00	1.287533e+00	1.265088e+00	1.300575e+00	1.317233e+00	1.312030e+00	1.304560e+00	1.317270e+00	1.235494e+00	1.258752e+00	1.263908e+00	1.263408e+00	1.320003e+00	1.316550e+00	1.313516e+00	1.327773e+00	1.017778e+00	1.210213e+00	1.125850e+00	1.268449e+00	1.323360e+00	1.332159e+00	1.324596e+00	1.068498e+00	1.070390e+00	1.281709e+00	1.331292e+00	1.319532e+00	1.314039e+00	1.330427e+00	1.345518e+00	1.198514e+00	1.240290e+00	1.288330e+00	1.158154e+00	1.107028e+00	1.104906e+00	1.368366e+00	1.346166e+00	1.536512e+00	1.568794e+00	1.572212e+00	1.295258e+00	1.299116e+00	1.301748e+00	1.271571e+00	1.227240e+00	1.190939e+00	1.233295e+00	1.298506e+00	7.369545e-01	1.021964e+00	1.270085e+00	1.302969e+00	1.244070e+00	1.285891e+00	1.289211e+00	1.286285e+00	1.092429e+00	1.025511e+00	9.498010e-01	8.733133e-01	1.241206e+00	1.236400e+00	1.200204e+00	1.207771e+00	1.254631e+00	1.230116e+00	1.260196e+00	1.340520e+00	1.331864e+00	1.313513e+00	1.372422e+00	1.368195e+00	1.327400e+00	1.366904e+00	1.344310e+00	1.287406e+00	1.347760e+00	1.248487e+00	1.381736e+00	1.385701e+00	1.339255e+00	1.171052e+00	1.179228e+00	1.188427e+00	1.399613e+00	1.421400e+00	1.396476e+00	1.265572e+00	1.283405e+00	1.413650e+00	1.265382e+00	1.303915e+00	1.352458e+00	1.293501e+00	1.298208e+00	1.164396e+00	9.832187e-01	1.044662e+00	1.199538e+00	1.074634e+00	1.052294e+00	9.056559e-01	1.024060e+00	1.317799e+00	1.318667e+00	1.356019e+00	1.014357e+00	9.073549e-01	8.656141e-01	1.253352e+00	1.283079e+00	1.387162e+00	1.364555e+00	1.370009e+00	1.023444e+00	1.113940e+00	1.132419e+00	1.137686e+00	1.226253e+00	1.227474e+00	1.187072e+00	1.525976e+00	1.346078e+00	1.348643e+00	1.347580e+00	1.359795e+00	1.399708e+00	1.430523e+00	1.278930e+00	1.266091e+00	1.355574e+00	1.323361e+00	1.325940e+00	1.135409e+00	1.183229e+00	1.174215e+00	7.698539e-01	8.406816e-01	7.984270e-01	9.491937e-01	1.099708e+00	1.094462e+00	1.081965e+00	1.306846e+00	1.265474e+00	1.328119e+00	1.166946e+00	1.202964e+00	1.220936e+00	8.743153e-01	8.633475e-01	1.136114e+00	1.231545e+00	1.311128e+00	1.317353e+00	1.236479e+00	1.338170e+00	1.202452e+00	1.489440e+00	1.459786e+00	1.263901e+00	1.264957e+00	1.149221e+00	1.200737e+00	1.300123e+00	9.807923e-01	1.289535e+00	1.256020e+00	1.381303e+00	1.308677e+00	1.351673e+00	1.361852e+00	1.323335e+00	1.269016e+00	1.271444e+00	1.227694e+00	1.237813e+00	1.369776e+00	1.057920e+00	1.024177e+00	8.540618e-01	7.834821e-01	7.855220e-01	7.601588e-01	7.309746e-01	1.449390e+00	1.237501e+00	1.286590e+00	1.297925e+00	1.332315e+00	1.341077e+00	1.357735e+00	1.336910e+00	1.200413e+00	1.084811e+00	1.067510e+00	1.359538e+00	1.366465e+00	1.265200e+00	1.294934e+00	1.313805e+00	1.244560e+00	1.205431e+00	1.215024e+00	1.262427e+00	1.473483e+00	1.469024e+00	1.328944e+00	1.342598e+00	1.333888e+00	8.109810e-01	1.243527e+00	1.223490e+00	1.051429e+00	1.212903e+00	1.218682e+00	1.208877e+00	1.224446e+00	1.448226e+00	1.353596e+00	1.240323e+00	1.374328e+00	1.374435e+00	1.367200e+00	1.382366e+00	1.383213e+00	1.390925e+00	1.383498e+00	7.230360e-01	1.515326e+00	1.516333e+00	1.534569e+00	1.119297e+00	1.069979e+00	1.168848e+00	1.164680e+00	1.291180e+00	1.250164e+00	1.282232e+00	1.283591e+00	1.224834e+00	1.327394e+00	1.346076e+00	1.341826e+00	1.192316e+00	1.098589e+00	1.123401e+00	1.091463e+00	1.351746e+00	1.359930e+00	1.357102e+00	1.046671e+00	1.059367e+00	1.078083e+00	1.096139e+00	7.020227e-01	1.366789e+00	1.227471e+00	1.385170e+00	1.395039e+00	1.382942e+00	1.374373e+00	1.133323e+00	1.158611e+00	1.124537e+00	1.406983e+00	1.176508e+00	1.134981e+00	1.433860e+00	1.475443e+00	1.446820e+00	1.254416e+00	1.234979e+00	1.203815e+00	9.632517e-01	9.058804e-01	1.222279e+00	1.281493e+00	7.524242e-01	7.116075e-01	7.370759e-01	6.857772e-01	1.405715e+00	1.352185e+00	1.233620e+00	1.218800e+00	1.217045e+00	6.229690e-01	6.828488e-01	6.249599e-01	1.067369e+00	9.557646e-01	9.542223e-01	1.220422e+00	1.139685e+00	1.236437e+00	1.186042e+00	1.231953e+00	1.173147e+00	1.189386e+00	1.141902e+00	1.133192e+00	1.032383e+00	1.211051e+00	1.223433e+00	1.181907e+00	1.187342e+00	1.506190e+00	1.477509e+00	8.873735e-01	1.374954e+00	1.370919e+00	1.374653e+00	1.377300e+00	1.377379e+00	1.195731e+00	1.203439e+00	1.218309e+00	1.555990e+00	1.450343e+00	1.374035e+00	1.022335e+00	7.266169e-01	1.328938e+00	1.323882e+00	1.345305e+00	1.329163e+00	1.234778e+00	1.236633e+00	1.230489e+00	1.255044e+00	1.261772e+00	1.177579e+00	1.370218e+00	1.371140e+00	1.375837e+00	1.321507e+00	1.292450e+00	1.347384e+00	1.378503e+00	1.373015e+00	1.380237e+00	1.377725e+00	1.376511e+00	1.184020e+00	1.107450e+00	1.074201e+00	1.376099e+00	1.374459e+00	1.381012e+00	1.365777e+00	1.039294e+00	1.110795e+00	1.272969e+00	1.253188e+00	1.273528e+00	1.385442e+00	1.368923e+00	1.360011e+00	1.049169e+00	1.141857e+00	1.154158e+00	1.158640e+00	1.176145e+00	7.503415e-01	7.326159e-01	1.264095e+00	1.287113e+00	1.370942e+00	1.349446e+00	1.348762e+00	1.382510e+00	1.385978e+00	1.390122e+00	1.387302e+00	1.532900e+00	7.725884e-01	7.804638e-01	8.947767e-01	1.106808e+00	1.088616e+00	1.109907e+00	1.080793e+00	1.183961e+00	1.034608e+00	1.093346e+00	1.176075e+00	1.122007e+00	1.232876e+00	1.510117e+00	1.501678e+00	1.266011e+00	1.232062e+00	1.382804e+00	1.558328e+00	1.149339e+00	1.221283e+00	1.220568e+00	1.205692e+00	1.200729e+00	1.198101e+00	1.257078e+00	1.271666e+00	1.266567e+00	1.269279e+00	1.191053e+00	1.499214e+00	1.531921e+00	1.231282e+00	1.302099e+00	1.349538e+00	1.322967e+00	1.065267e+00	1.029126e+00	1.074523e+00	1.130456e+00	1.162332e+00	1.120827e+00	1.006193e+00	1.031003e+00	1.280139e+00	1.077710e+00	9.805518e-01	1.031549e+00	1.259009e+00	1.209965e+00	1.207826e+00	9.856236e-01	9.954195e-01	1.075345e+00	7.225005e-01	6.996893e-01	6.973313e-01	8.287379e-01	1.441907e+00	1.267581e+00	1.337345e+00	1.211838e+00	1.216399e+00	1.218136e+00	1.376555