# vtk DataFile Version 3.0
vtk output
ASCII
DATASET UNSTRUCTURED_GRID
POINTS 198 double
0.000000e+00	0.000000e+00	0.0	3.475246e-03	3.594811e-03	0.0	7.234599e-03	7.141079e-03	0.0	1.170134e-02	1.014082e-02	0.0	1.643129e-02	1.307970e-02	0.0	2.161675e-02	1.563525e-02	0.0	2.704677e-02	1.814821e-02	0.0	3.284434e-02	2.034777e-02	0.0	3.887292e-02	2.254478e-02	0.0	4.517578e-02	2.463083e-02	0.0	5.166430e-02	2.687021e-02	0.0	5.833145e-02	2.929574e-02	0.0	6.505764e-02	3.218582e-02	0.0	7.189530e-02	3.542442e-02	0.0	7.867499e-02	3.928336e-02	0.0	8.559328e-02	4.340031e-02	0.0	9.278504e-02	4.753821e-02	0.0	1.002032e-01	5.178051e-02	0.0	1.082726e-01	5.528478e-02	0.0	1.165737e-01	5.888970e-02	0.0	1.255843e-01	6.120095e-02	0.0	1.348482e-01	6.355524e-02	0.0	1.445240e-01	6.512785e-02	0.0	1.544960e-01	6.650891e-02	0.0	1.647421e-01	6.772031e-02	0.0	1.752714e-01	6.866897e-02	0.0	1.860491e-01	6.964002e-02	0.0	1.970766e-01	7.058670e-02	0.0	2.083466e-01	7.155091e-02	0.0	2.198555e-01	7.252524e-02	0.0	2.315990e-01	7.350465e-02	0.0	2.435702e-01	7.450304e-02	0.0	2.557932e-01	7.501750e-02	0.0	2.682351e-01	7.547911e-02	0.0	2.808812e-01	7.551352e-02	0.0	2.937210e-01	7.484203e-02	0.0	3.067508e-01	7.416061e-02	0.0	3.198250e-01	7.220346e-02	0.0	3.330490e-01	7.005020e-02	0.0	3.463945e-01	6.767863e-02	0.0	3.598223e-01	6.493812e-02	0.0	3.733826e-01	6.217057e-02	0.0	3.871614e-01	5.992868e-02	0.0	4.010682e-01	5.778125e-02	0.0	4.151234e-01	5.623142e-02	0.0	4.293686e-01	5.591134e-02	0.0	4.436811e-01	5.558974e-02	0.0	4.579918e-01	5.673976e-02	0.0	4.723315e-01	5.812354e-02	0.0	4.866831e-01	5.961155e-02	0.0	5.010252e-01	6.126068e-02	0.0	5.153598e-01	6.290895e-02	0.0	5.297513e-01	6.346056e-02	0.0	5.441133e-01	6.389916e-02	0.0	5.583815e-01	6.340527e-02	0.0	5.725299e-01	6.171589e-02	0.0	5.865972e-01	6.003618e-02	0.0	6.003507e-01	5.707919e-02	0.0	6.139842e-01	5.406661e-02	0.0	6.274613e-01	5.092518e-02	0.0	6.407507e-01	4.757748e-02	0.0	6.538972e-01	4.426580e-02	0.0	6.669790e-01	4.137784e-02	0.0	6.799150e-01	3.861375e-02	0.0	6.927067e-01	3.606190e-02	0.0	7.054130e-01	3.409670e-02	0.0	7.179223e-01	3.216196e-02	0.0	7.302812e-01	3.068167e-02	0.0	7.424499e-01	2.940875e-02	0.0	7.544064e-01	2.826566e-02	0.0	7.661676e-01	2.752844e-02	0.0	7.776951e-01	2.680586e-02	0.0	7.889978e-01	2.638673e-02	0.0	8.000601e-01	2.603256e-02	0.0	8.108774e-01	2.573784e-02	0.0	8.214464e-01	2.548811e-02	0.0	8.317612e-01	2.516712e-02	0.0	8.418184e-01	2.471912e-02	0.0	8.516178e-01	2.422661e-02	0.0	8.611364e-01	2.335606e-02	0.0	8.704017e-01	2.250869e-02	0.0	8.793816e-01	2.139524e-02	0.0	8.881014e-01	2.022913e-02	0.0	8.965616e-01	1.902353e-02	0.0	9.047522e-01	1.769726e-02	0.0	9.126992e-01	1.641042e-02	0.0	9.203907e-01	1.507501e-02	0.0	9.278416e-01	1.376081e-02	0.0	9.350560e-01	1.247334e-02	0.0	9.420355e-01	1.120041e-02	0.0	9.487889e-01	9.968422e-03	0.0	9.553144e-01	8.745670e-03	0.0	9.616223e-01	7.563693e-03	0.0	9.677130e-01	6.400690e-03	0.0	9.735946e-01	5.273724e-03	0.0	9.792690e-01	4.169006e-03	0.0	9.847432e-01	3.096450e-03	0.0	9.900210e-01	2.049953e-03	0.0	9.951063e-01	1.024128e-03	0.0	1.000000e+00	0.000000e+00	0.0	9.950042e-01	1.993891e-04	0.0	9.898193e-01	3.999450e-04	0.0	9.844389e-01	5.501112e-04	0.0	9.788587e-01	6.539101e-04	0.0	9.730741e-01	7.322246e-04	0.0	9.670802e-01	7.503278e-04	0.0	9.608729e-01	7.450711e-04	0.0	9.544475e-01	6.741303e-04	0.0	9.477995e-01	5.864915e-04	0.0	9.409261e-01	4.049881e-04	0.0	9.338212e-01	2.173748e-04	0.0	9.264844e-01	-7.423223e-05	0.0	9.189092e-01	-3.963116e-04	0.0	9.110936e-01	-7.681283e-04	0.0	9.030354e-01	-1.214317e-03	0.0	8.947290e-01	-1.674255e-03	0.0	8.861754e-01	-2.209153e-03	0.0	8.773694e-01	-2.766338e-03	0.0	8.683103e-01	-3.357621e-03	0.0	8.589970e-01	-3.987377e-03	0.0	8.494278e-01	-4.637103e-03	0.0	8.396038e-01	-5.327610e-03	0.0	8.295238e-01	-6.036110e-03	0.0	8.191914e-01	-6.799359e-03	0.0	8.086060e-01	-7.587519e-03	0.0	7.977723e-01	-8.432849e-03	0.0	7.866919e-01	-9.319521e-03	0.0	7.753697e-01	-1.026226e-02	0.0	7.638121e-01	-1.128832e-02	0.0	7.520188e-01	-1.233531e-02	0.0	7.400364e-01	-1.379257e-02	0.0	7.278316e-01	-1.528300e-02	0.0	7.154724e-01	-1.719928e-02	0.0	7.029677e-01	-1.954785e-02	0.0	6.902649e-01	-2.193363e-02	0.0	6.776312e-01	-2.545327e-02	0.0	6.648350e-01	-2.907932e-02	0.0	6.519750e-01	-3.306767e-02	0.0	6.391583e-01	-3.771428e-02	0.0	6.262013e-01	-4.241175e-02	0.0	6.130853e-01	-4.707089e-02	0.0	5.998388e-01	-5.173351e-02	0.0	5.864617e-01	-5.634516e-02	0.0	5.726344e-01	-5.979243e-02	0.0	5.587268e-01	-6.325969e-02	0.0	5.445500e-01	-6.549821e-02	0.0	5.301409e-01	-6.664379e-02	0.0	5.156912e-01	-6.768077e-02	0.0	5.011833e-01	-6.720527e-02	0.0	4.866677e-01	-6.672953e-02	0.0	4.721648e-01	-6.612844e-02	0.0	4.576879e-01	-6.545034e-02	0.0	4.432481e-01	-6.496779e-02	0.0	4.288555e-01	-6.546846e-02	0.0	4.145310e-01	-6.596675e-02	0.0	4.003752e-01	-6.747471e-02	0.0	3.863503e-01	-6.938042e-02	0.0	3.724536e-01	-7.139095e-02	0.0	3.587400e-01	-7.377366e-02	0.0	3.451612e-01	-7.613295e-02	0.0	3.316800e-01	-7.815335e-02	0.0	3.183404e-01	-8.003750e-02	0.0	3.051447e-01	-8.162581e-02	0.0	2.920464e-01	-8.233374e-02	0.0	2.791403e-01	-8.303128e-02	0.0	2.664238e-01	-8.299217e-02	0.0	2.539135e-01	-8.272110e-02	0.0	2.416281e-01	-8.229626e-02	0.0	2.295871e-01	-8.144919e-02	0.0	2.177766e-01	-8.061833e-02	0.0	2.062178e-01	-7.961239e-02	0.0	1.949042e-01	-7.857016e-02	0.0	1.838445e-01	-7.746413e-02	0.0	1.730582e-01	-7.614488e-02	0.0	1.625220e-01	-7.485621e-02	0.0	1.523194e-01	-7.307924e-02	0.0	1.423941e-01	-7.118268e-02	0.0	1.327841e-01	-6.908036e-02	0.0	1.236196e-01	-6.625109e-02	0.0	1.147004e-01	-6.349756e-02	0.0	1.063033e-01	-6.008801e-02	0.0	9.826619e-02	-5.644665e-02	0.0	9.047848e-02	-5.287242e-02	0.0	8.319968e-02	-4.884406e-02	0.0	7.613846e-02	-4.493612e-02	0.0	6.933026e-02	-4.108053e-02	0.0	6.278345e-02	-3.725618e-02	0.0	5.644318e-02	-3.355248e-02	0.0	5.016389e-02	-3.022426e-02	0.0	4.407695e-02	-2.702635e-02	0.0	3.807988e-02	-2.416044e-02	0.0	3.224023e-02	-2.147920e-02	0.0	2.660069e-02	-1.888528e-02	0.0	2.118257e-02	-1.632728e-02	0.0	1.615954e-02	-1.345723e-02	0.0	1.149613e-02	-1.040975e-02	0.0	7.184059e-03	-7.188386e-03	0.0	3.340088e-03	-3.705722e-03	0.0	
CELLS 198	594
2	117	118	2	118	119	2	119	120	2	120	121	2	121	122	2	122	123	2	123	124	2	124	125	2	125	126	2	126	127	2	127	128	2	128	129	2	129	130	2	130	131	2	131	132	2	132	133	2	133	134	2	134	135	2	135	136	2	136	137	2	137	138	2	138	139	2	139	140	2	140	141	2	141	142	2	142	143	2	143	144	2	144	145	2	145	146	2	146	147	2	147	148	2	148	149	2	149	150	2	150	151	2	151	152	2	152	153	2	153	154	2	154	155	2	155	156	2	156	157	2	157	158	2	158	159	2	159	160	2	160	161	2	161	162	2	162	163	2	163	164	2	164	165	2	165	166	2	166	167	2	167	168	2	168	169	2	169	170	2	170	171	2	171	172	2	172	173	2	173	174	2	174	175	2	175	176	2	176	177	2	177	178	2	178	179	2	179	180	2	180	181	2	181	182	2	182	183	2	183	184	2	184	185	2	185	186	2	186	187	2	187	188	2	188	189	2	189	190	2	190	191	2	191	192	2	192	193	2	0	1	2	1	2	2	2	3	2	3	4	2	4	5	2	5	6	2	6	7	2	7	8	2	8	9	2	9	10	2	10	11	2	11	12	2	12	13	2	13	14	2	14	15	2	15	16	2	16	17	2	17	18	2	18	19	2	19	20	2	20	21	2	21	22	2	22	23	2	23	24	2	24	25	2	25	26	2	26	27	2	27	28	2	28	29	2	29	30	2	30	31	2	31	32	2	32	33	2	33	34	2	34	35	2	35	36	2	36	37	2	37	38	2	38	39	2	39	40	2	40	41	2	41	42	2	42	43	2	43	44	2	44	45	2	45	46	2	46	47	2	47	48	2	48	49	2	49	50	2	50	51	2	51	52	2	52	53	2	53	54	2	193	194	2	194	195	2	195	196	2	196	197	2	197	0	2	54	55	2	55	56	2	56	57	2	57	58	2	58	59	2	59	60	2	60	61	2	61	62	2	62	63	2	63	64	2	64	65	2	65	66	2	66	67	2	67	68	2	68	69	2	69	70	2	70	71	2	71	72	2	72	73	2	73	74	2	74	75	2	75	76	2	76	77	2	77	78	2	78	79	2	79	80	2	80	81	2	81	82	2	82	83	2	83	84	2	84	85	2	85	86	2	86	87	2	87	88	2	88	89	2	89	90	2	90	91	2	91	92	2	92	93	2	93	94	2	94	95	2	95	96	2	96	97	2	97	98	2	98	99	2	99	100	2	100	101	2	101	102	2	102	103	2	103	104	2	104	105	2	105	106	2	106	107	2	107	108	2	108	109	2	109	110	2	110	111	2	111	112	2	112	113	2	113	114	2	114	115	2	115	116	2	116	117	
CELL_TYPES 198
3	3	3	3	3	3	3	3	3	3	3	3	3	3	3	3	3	3	3	3	3	3	3	3	3	3	3	3	3	3	3	3	3	3	3	3	3	3	3	3	3	3	3	3	3	3	3	3	3	3	3	3	3	3	3	3	3	3	3	3	3	3	3	3	3	3	3	3	3	3	3	3	3	3	3	3	3	3	3	3	3	3	3	3	3	3	3	3	3	3	3	3	3	3	3	3	3	3	3	3	3	3	3	3	3	3	3	3	3	3	3	3	3	3	3	3	3	3	3	3	3	3	3	3	3	3	3	3	3	3	3	3	3	3	3	3	3	3	3	3	3	3	3	3	3	3	3	3	3	3	3	3	3	3	3	3	3	3	3	3	3	3	3	3	3	3	3	3	3	3	3	3	3	3	3	3	3	3	3	3	3	3	3	3	3	3	3	3	3	3	3	3	3	3	3	3	3	3	
POINT_DATA 198

SCALARS Density double 1
LOOKUP_TABLE default
1.561708e+00	1.271399e+00	1.309569e+00	1.263635e+00	1.251145e+00	1.245282e+00	1.251993e+00	1.265612e+00	1.294359e+00	1.318360e+00	1.344456e+00	1.361818e+00	1.364530e+00	1.356239e+00	1.327142e+00	1.260463e+00	1.197476e+00	1.091341e+00	1.000223e+00	8.956175e-01	8.036379e-01	7.515508e-01	6.963225e-01	6.821089e-01	6.705472e-01	6.689212e-01	6.822398e-01	6.956883e-01	7.092960e-01	7.230135e-01	7.373424e-01	7.208360e-01	7.000263e-01	6.871049e-01	6.431794e-01	6.180439e-01	5.743487e-01	5.158930e-01	5.038629e-01	4.934212e-01	4.797736e-01	5.197026e-01	6.912924e-01	1.080164e+00	1.190254e+00	1.192470e+00	1.183165e+00	1.177643e+00	1.140977e+00	1.113840e+00	1.080470e+00	1.017269e+00	9.735886e-01	9.453959e-01	9.044550e-01	9.352732e-01	9.813537e-01	1.022859e+00	1.083288e+00	1.111583e+00	1.141509e+00	1.171143e+00	1.187191e+00	1.195252e+00	1.210230e+00	1.213704e+00	1.216190e+00	1.221515e+00	1.218799e+00	1.221458e+00	1.218891e+00	1.215036e+00	1.211952e+00	1.203630e+00	1.198069e+00	1.190578e+00	1.181608e+00	1.177662e+00	1.170564e+00	1.170892e+00	1.175365e+00	1.176971e+00	1.186145e+00	1.189782e+00	1.197183e+00	1.204462e+00	1.209528e+00	1.216551e+00	1.221395e+00	1.226562e+00	1.231145e+00	1.235862e+00	1.240760e+00	1.245312e+00	1.250210e+00	1.255149e+00	1.261365e+00	1.269351e+00	1.265539e+00	1.290130e+00	1.389835e+00	1.368794e+00	1.367701e+00	1.372180e+00	1.373427e+00	1.374199e+00	1.375049e+00	1.376572e+00	1.376465e+00	1.377062e+00	1.377516e+00	1.375414e+00	1.375867e+00	1.373775e+00	1.372643e+00	1.371813e+00	1.369754e+00	1.369316e+00	1.368372e+00	1.368277e+00	1.368340e+00	1.369159e+00	1.370252e+00	1.371546e+00	1.373480e+00	1.375756e+00	1.379025e+00	1.381383e+00	1.391034e+00	1.394984e+00	1.397898e+00	1.407111e+00	1.400164e+00	1.409393e+00	1.407103e+00	1.387488e+00	1.383590e+00	1.362419e+00	1.327857e+00	1.295349e+00	1.259203e+00	1.195027e+00	1.092629e+00	9.089888e-01	8.401750e-01	8.926221e-01	9.431449e-01	1.032351e+00	1.136888e+00	1.184762e+00	1.236373e+00	1.291354e+00	1.309020e+00	1.324476e+00	1.333966e+00	1.309376e+00	1.293786e+00	1.267814e+00	1.228522e+00	1.187681e+00	1.046043e+00	8.527551e-01	8.217632e-01	8.521132e-01	8.929676e-01	9.529343e-01	9.788561e-01	1.016279e+00	1.049991e+00	1.066329e+00	1.077463e+00	1.073210e+00	1.066387e+00	1.039554e+00	1.032723e+00	1.041478e+00	1.029807e+00	1.070678e+00	1.105233e+00	1.140357e+00	1.222657e+00	1.257842e+00	1.306296e+00	1.363698e+00	1.395174e+00	1.428346e+00	1.464517e+00	1.485322e+00	1.501460e+00	1.516099e+00	1.521383e+00	1.529811e+00	1.532874e+00	1.545460e+00	1.566499e+00	1.597338e+00	1.609255e+00	1.686334e+00	
VECTORS Momentum double
9.566922e+00	1.728319e+02	0.0	1.637135e+02	1.597135e+02	0.0	1.939404e+02	1.548181e+02	0.0	2.211988e+02	1.420706e+02	0.0	2.392671e+02	1.320064e+02	0.0	2.523956e+02	1.201244e+02	0.0	2.600651e+02	1.088199e+02	0.0	2.598832e+02	9.639962e+01	0.0	2.562382e+02	8.902438e+01	0.0	2.494224e+02	8.425076e+01	0.0	2.423672e+02	8.593523e+01	0.0	2.358812e+02	9.354650e+01	0.0	2.320827e+02	1.046807e+02	0.0	2.319317e+02	1.208940e+02	0.0	2.395507e+02	1.398477e+02	0.0	2.524401e+02	1.478451e+02	0.0	2.684837e+02	1.550304e+02	0.0	2.833712e+02	1.425213e+02	0.0	2.954188e+02	1.289341e+02	0.0	3.011862e+02	1.044457e+02	0.0	2.960104e+02	7.653480e+01	0.0	2.929609e+02	6.093547e+01	0.0	2.839353e+02	4.229772e+01	0.0	2.827562e+02	3.532146e+01	0.0	2.812822e+02	2.916362e+01	0.0	2.813170e+02	2.511054e+01	0.0	2.848410e+02	2.481912e+01	0.0	2.878503e+02	2.467251e+01	0.0	2.907381e+02	2.478340e+01	0.0	2.928159e+02	2.447534e+01	0.0	2.968474e+02	2.545934e+01	0.0	2.933394e+02	1.929419e+01	0.0	2.888150e+02	1.143871e+01	0.0	2.876005e+02	6.273728e+00	0.0	2.763633e+02	-6.674570e+00	0.0	2.705896e+02	-1.401067e+01	0.0	2.589525e+02	-2.478909e+01	0.0	2.382678e+02	-3.732229e+01	0.0	2.349563e+02	-4.077196e+01	0.0	2.319671e+02	-4.433094e+01	0.0	2.251989e+02	-4.627390e+01	0.0	2.320811e+02	-4.421535e+01	0.0	2.542089e+02	-4.345889e+01	0.0	2.400475e+02	-3.103347e+01	0.0	2.326209e+02	-1.526978e+01	0.0	2.314655e+02	-4.847089e+00	0.0	2.286313e+02	6.524965e+00	0.0	2.335139e+02	2.088366e+01	0.0	2.414231e+02	2.420021e+01	0.0	2.484742e+02	2.716182e+01	0.0	2.599090e+02	3.024614e+01	0.0	2.682082e+02	2.067915e+01	0.0	2.725481e+02	9.462214e+00	0.0	2.784139e+02	-9.717208e-02	0.0	2.722741e+02	-2.040219e+01	0.0	2.701605e+02	-3.225653e+01	0.0	2.661612e+02	-4.418589e+01	0.0	2.534429e+02	-5.548353e+01	0.0	2.460688e+02	-5.585216e+01	0.0	2.368335e+02	-5.741004e+01	0.0	2.263305e+02	-5.693678e+01	0.0	2.187981e+02	-5.156784e+01	0.0	2.140856e+02	-4.630957e+01	0.0	2.078865e+02	-4.301424e+01	0.0	2.047878e+02	-3.624193e+01	0.0	2.035746e+02	-3.149120e+01	0.0	2.017158e+02	-2.776391e+01	0.0	2.019742e+02	-2.259429e+01	0.0	2.018159e+02	-2.021966e+01	0.0	2.020324e+02	-1.596836e+01	0.0	2.034267e+02	-1.269843e+01	0.0	2.049944e+02	-1.025253e+01	0.0	2.078493e+02	-7.193453e+00	0.0	2.107677e+02	-6.310480e+00	0.0	2.140340e+02	-5.463709e+00	0.0	2.178351e+02	-5.936416e+00	0.0	2.204210e+02	-8.382969e+00	0.0	2.230644e+02	-1.050238e+01	0.0	2.242308e+02	-1.574857e+01	0.0	2.232326e+02	-2.046698e+01	0.0	2.223296e+02	-2.386565e+01	0.0	2.194362e+02	-2.831953e+01	0.0	2.169795e+02	-2.995770e+01	0.0	2.139326e+02	-3.256173e+01	0.0	2.104372e+02	-3.408887e+01	0.0	2.073660e+02	-3.473915e+01	0.0	2.038866e+02	-3.566951e+01	0.0	2.007746e+02	-3.559078e+01	0.0	1.978735e+02	-3.568987e+01	0.0	1.950209e+02	-3.555407e+01	0.0	1.922148e+02	-3.553426e+01	0.0	1.894268e+02	-3.549719e+01	0.0	1.865745e+02	-3.527439e+01	0.0	1.835659e+02	-3.509595e+01	0.0	1.804290e+02	-3.483535e+01	0.0	1.768843e+02	-3.457052e+01	0.0	1.730405e+02	-3.404366e+01	0.0	1.675891e+02	-3.351425e+01	0.0	1.546257e+02	-3.323897e+01	0.0	1.877605e+02	-4.727572e+00	0.0	2.639334e+02	-1.186249e+01	0.0	2.570403e+02	-8.756219e+00	0.0	2.531812e+02	-5.615016e+00	0.0	2.537880e+02	-4.088365e+00	0.0	2.531562e+02	-2.108734e+00	0.0	2.523905e+02	-2.399633e-01	0.0	2.521270e+02	1.534763e+00	0.0	2.516827e+02	3.040988e+00	0.0	2.512836e+02	5.009486e+00	0.0	2.514243e+02	6.623511e+00	0.0	2.513419e+02	8.319057e+00	0.0	2.516519e+02	1.038775e+01	0.0	2.521379e+02	1.133132e+01	0.0	2.522704e+02	1.300246e+01	0.0	2.527760e+02	1.399803e+01	0.0	2.532188e+02	1.493558e+01	0.0	2.536317e+02	1.597760e+01	0.0	2.541702e+02	1.632942e+01	0.0	2.543528e+02	1.690270e+01	0.0	2.545780e+02	1.723608e+01	0.0	2.545383e+02	1.758347e+01	0.0	2.543156e+02	1.786476e+01	0.0	2.538587e+02	1.830335e+01	0.0	2.531709e+02	1.879067e+01	0.0	2.522753e+02	1.925377e+01	0.0	2.511182e+02	1.985328e+01	0.0	2.496180e+02	2.039637e+01	0.0	2.478387e+02	2.135082e+01	0.0	2.454525e+02	2.168103e+01	0.0	2.418073e+02	2.544263e+01	0.0	2.398682e+02	2.922646e+01	0.0	2.376264e+02	3.278770e+01	0.0	2.350252e+02	4.035968e+01	0.0	2.344180e+02	4.387233e+01	0.0	2.310455e+02	5.384042e+01	0.0	2.334728e+02	6.567108e+01	0.0	2.392191e+02	7.086254e+01	0.0	2.419801e+02	8.140772e+01	0.0	2.510107e+02	9.097694e+01	0.0	2.627215e+02	9.415359e+01	0.0	2.724866e+02	9.632930e+01	0.0	2.821764e+02	9.792021e+01	0.0	2.968037e+02	8.653780e+01	0.0	2.982333e+02	7.553662e+01	0.0	3.024708e+02	6.076554e+01	0.0	3.225904e+02	3.748009e+01	0.0	3.217021e+02	2.399098e+01	0.0	3.280285e+02	5.576366e+00	0.0	3.274411e+02	-1.161458e+01	0.0	3.167547e+02	-1.153331e+01	0.0	3.098519e+02	-1.355367e+01	0.0	3.001299e+02	-1.193960e+01	0.0	2.904647e+02	2.650195e-01	0.0	2.875699e+02	9.804649e+00	0.0	2.853015e+02	1.958990e+01	0.0	2.846425e+02	3.445682e+01	0.0	2.904004e+02	4.059613e+01	0.0	2.933025e+02	4.684222e+01	0.0	2.966320e+02	5.202420e+01	0.0	3.039054e+02	4.875231e+01	0.0	3.057370e+02	4.356086e+01	0.0	3.074987e+02	3.955396e+01	0.0	3.136117e+02	2.766238e+01	0.0	3.212487e+02	1.740335e+01	0.0	3.242921e+02	8.343990e+00	0.0	3.316522e+02	-4.203542e+00	0.0	3.312511e+02	-9.129168e+00	0.0	3.333278e+02	-1.751763e+01	0.0	3.332619e+02	-2.358749e+01	0.0	3.318108e+02	-2.609304e+01	0.0	3.315668e+02	-2.974164e+01	0.0	3.306474e+02	-3.184543e+01	0.0	3.311500e+02	-3.700882e+01	0.0	3.293875e+02	-4.020831e+01	0.0	3.296399e+02	-4.906454e+01	0.0	3.285016e+02	-6.008377e+01	0.0	3.230018e+02	-6.629318e+01	0.0	3.235480e+02	-8.527191e+01	0.0	3.162067e+02	-9.758854e+01	0.0	3.085304e+02	-1.093328e+02	0.0	2.985175e+02	-1.283247e+02	0.0	2.847179e+02	-1.297028e+02	0.0	2.719912e+02	-1.378694e+02	0.0	2.550878e+02	-1.417743e+02	0.0	2.418155e+02	-1.352463e+02	0.0	2.298632e+02	-1.322384e+02	0.0	2.168022e+02	-1.269423e+02	0.0	2.068712e+02	-1.152505e+02	0.0	2.004326e+02	-1.057769e+02	0.0	1.945746e+02	-9.761742e+01	0.0	1.905124e+02	-8.915739e+01	0.0	1.865484e+02	-8.568732e+01	0.0	1.802933e+02	-8.377372e+01	0.0	1.669675e+02	-8.665797e+01	0.0	1.430483e+02	-8.688559e+01	0.0	1.092852e+02	-7.561401e+01	0.0	6.754781e+01	-5.266183e+01	0.0	-8.280104e+00	6.779039e+00	0.0	
SCALARS Energy double 1
LOOKUP_TABLE default
3.414146e+05	2.815948e+05	2.907124e+05	2.818468e+05	2.798511e+05	2.790166e+05	2.805770e+05	2.831345e+05	2.888175e+05	2.934114e+05	2.985866e+05	3.020802e+05	3.026997e+05	3.013211e+05	2.960878e+05	2.830452e+05	2.711527e+05	2.498396e+05	2.317486e+05	2.104340e+05	1.908951e+05	1.800020e+05	1.679121e+05	1.649287e+05	1.624529e+05	1.620989e+05	1.650693e+05	1.680073e+05	1.709671e+05	1.738531e+05	1.770991e+05	1.734483e+05	1.688578e+05	1.662117e+05	1.564546e+05	1.509991e+05	1.413856e+05	1.279836e+05	1.253914e+05	1.231518e+05	1.197826e+05	1.280463e+05	1.636591e+05	2.419938e+05	2.646426e+05	2.650217e+05	2.628990e+05	2.620526e+05	2.548045e+05	2.495618e+05	2.433645e+05	2.307682e+05	2.220463e+05	2.167327e+05	2.079161e+05	2.141316e+05	2.234142e+05	2.312195e+05	2.433194e+05	2.486913e+05	2.543654e+05	2.601394e+05	2.632287e+05	2.645901e+05	2.675573e+05	2.682000e+05	2.686143e+05	2.697297e+05	2.691319e+05	2.696905e+05	2.691990e+05	2.684473e+05	2.679237e+05	2.662978e+05	2.652805e+05	2.638881e+05	2.621274e+05	2.614384e+05	2.600161e+05	2.600521e+05	2.609681e+05	2.611812e+05	2.630070e+05	2.636401e+05	2.650453e+05	2.664442e+05	2.673597e+05	2.687048e+05	2.696017e+05	2.705705e+05	2.714211e+05	2.723037e+05	2.732238e+05	2.740665e+05	2.749805e+05	2.758902e+05	2.770634e+05	2.785602e+05	2.772697e+05	2.836852e+05	3.085759e+05	3.037417e+05	3.032997e+05	3.042798e+05	3.045094e+05	3.046324e+05	3.047991e+05	3.050996e+05	3.050578e+05	3.051937e+05	3.052881e+05	3.048627e+05	3.049862e+05	3.045538e+05	3.043431e+05	3.041934e+05	3.037822e+05	3.037191e+05	3.035307e+05	3.035238e+05	3.035361e+05	3.036989e+05	3.039081e+05	3.041477e+05	3.045126e+05	3.049369e+05	3.055548e+05	3.059676e+05	3.078968e+05	3.085720e+05	3.091170e+05	3.109895e+05	3.094430e+05	3.114076e+05	3.108598e+05	3.069485e+05	3.064740e+05	3.022904e+05	2.956296e+05	2.895005e+05	2.825485e+05	2.698196e+05	2.494455e+05	2.119994e+05	1.983852e+05	2.104546e+05	2.202945e+05	2.387712e+05	2.600364e+05	2.690429e+05	2.792357e+05	2.900252e+05	2.930830e+05	2.961574e+05	2.980435e+05	2.929219e+05	2.900656e+05	2.848802e+05	2.769652e+05	2.689568e+05	2.398710e+05	2.010318e+05	1.954393e+05	2.021426e+05	2.104855e+05	2.231464e+05	2.283019e+05	2.360527e+05	2.428888e+05	2.460865e+05	2.483533e+05	2.474254e+05	2.461318e+05	2.405708e+05	2.393219e+05	2.411536e+05	2.384076e+05	2.471262e+05	2.538369e+05	2.607216e+05	2.774829e+05	2.838944e+05	2.934539e+05	3.046551e+05	3.104193e+05	3.167862e+05	3.237536e+05	3.275022e+05	3.304951e+05	3.332482e+05	3.340834e+05	3.356919e+05	3.361042e+05	3.384213e+05	3.422673e+05	3.479799e+05	3.496362e+05	3.657099e+05	
SCALARS Pressure double 1
LOOKUP_TABLE default
1.327287e+05	1.044091e+05	1.068801e+05	1.018000e+05	1.000034e+05	9.905794e+04	9.953494e+04	1.011123e+05	1.041571e+05	1.068500e+05	1.095977e+05	1.113755e+05	1.115791e+05	1.104406e+05	1.068400e+05	9.963828e+04	9.240766e+04	8.149767e+04	7.192481e+04	6.148043e+04	5.309388e+04	4.817297e+04	4.349525e+04	4.216336e+04	4.112895e+04	4.098928e+04	4.206244e+04	4.320755e+04	4.437913e+04	4.565782e+04	4.676220e+04	4.540152e+04	4.367405e+04	4.239713e+04	3.881826e+04	3.664243e+04	3.298985e+04	2.864438e+04	2.758421e+04	2.665367e+04	2.587936e+04	2.973831e+04	4.622116e+04	8.594993e+04	9.672527e+04	9.701897e+04	9.631638e+04	9.548633e+04	9.160244e+04	8.860637e+04	8.467216e+04	7.808029e+04	7.354061e+04	7.029479e+04	6.668149e+04	6.982257e+04	7.453022e+04	7.932630e+04	8.557292e+04	8.879159e+04	9.220313e+04	9.542626e+04	9.720899e+04	9.829503e+04	9.987527e+04	1.002875e+05	1.006277e+05	1.011291e+05	1.009021e+05	1.011511e+05	1.008630e+05	1.004445e+05	1.000317e+05	9.913097e+04	9.845983e+04	9.757806e+04	9.661545e+04	9.610636e+04	9.537344e+04	9.543736e+04	9.587926e+04	9.615381e+04	9.711313e+04	9.758444e+04	9.842600e+04	9.923707e+04	9.985978e+04	1.006467e+05	1.012207e+05	1.018205e+05	1.023613e+05	1.029107e+05	1.034779e+05	1.040170e+05	1.045902e+05	1.051801e+05	1.058939e+05	1.068218e+05	1.069548e+05	1.080054e+05	1.133858e+05	1.118318e+05	1.119418e+05	1.123217e+05	1.124705e+05	1.125820e+05	1.126734e+05	1.128353e+05	1.128447e+05	1.128901e+05	1.129332e+05	1.127207e+05	1.127346e+05	1.125319e+05	1.123988e+05	1.122967e+05	1.120828e+05	1.120129e+05	1.119147e+05	1.118929e+05	1.118994e+05	1.119853e+05	1.121081e+05	1.122611e+05	1.124837e+05	1.127501e+05	1.131249e+05	1.134279e+05	1.144290e+05	1.149530e+05	1.152927e+05	1.162172e+05	1.156545e+05	1.164920e+05	1.163444e+05	1.143004e+05	1.135917e+05	1.113477e+05	1.075153e+05	1.037745e+05	9.975256e+04	9.299730e+04	8.228257e+04	6.397467e+04	5.669664e+04	6.055047e+04	6.604954e+04	7.465630e+04	8.512921e+04	9.065736e+04	9.613394e+04	1.020370e+05	1.043427e+05	1.059610e+05	1.069561e+05	1.046119e+05	1.027349e+05	1.000351e+05	9.602085e+04	9.162975e+04	7.771343e+04	5.786935e+04	5.405259e+04	5.656367e+04	6.062446e+04	6.616971e+04	6.888424e+04	7.249515e+04	7.589441e+04	7.765692e+04	7.877055e+04	7.840719e+04	7.762912e+04	7.504370e+04	7.421866e+04	7.504507e+04	7.424744e+04	7.793762e+04	8.171810e+04	8.549722e+04	9.372260e+04	9.799347e+04	1.031448e+05	1.093710e+05	1.131632e+05	1.168675e+05	1.208819e+05	1.234499e+05	1.253564e+05	1.270479e+05	1.278171e+05	1.287672e+05	1.292849e+05	1.307889e+05	1.333305e+05	1.369807e+05	1.389427e+05	1.462704e+05	
SCALARS Temperature double 1
LOOKUP_TABLE default
2.960706e+02	2.860795e+02	2.843143e+02	2.806443e+02	2.784439e+02	2.771098e+02	2.769517e+02	2.783132e+02	2.803268e+02	2.823390e+02	2.839783e+02	2.849054e+02	2.848592e+02	2.836762e+02	2.804443e+02	2.753763e+02	2.688262e+02	2.601447e+02	2.505025e+02	2.391358e+02	2.301518e+02	2.232931e+02	2.176014e+02	2.153336e+02	2.136725e+02	2.134645e+02	2.147770e+02	2.163591e+02	2.179624e+02	2.199880e+02	2.209307e+02	2.194140e+02	2.173399e+02	2.149531e+02	2.102491e+02	2.065358e+02	2.000944e+02	1.934239e+02	1.907122e+02	1.881783e+02	1.879090e+02	1.993387e+02	2.329214e+02	2.771955e+02	2.830939e+02	2.834258e+02	2.835864e+02	2.824606e+02	2.796794e+02	2.771228e+02	2.729973e+02	2.673844e+02	2.631371e+02	2.590238e+02	2.568317e+02	2.600684e+02	2.645679e+02	2.701666e+02	2.751837e+02	2.782660e+02	2.813822e+02	2.838495e+02	2.852439e+02	2.864854e+02	2.874884e+02	2.878485e+02	2.882349e+02	2.884082e+02	2.884022e+02	2.884844e+02	2.882686e+02	2.879833e+02	2.875296e+02	2.869107e+02	2.862910e+02	2.855121e+02	2.848416e+02	2.842902e+02	2.838330e+02	2.839434e+02	2.841726e+02	2.845974e+02	2.852139e+02	2.857218e+02	2.864044e+02	2.870194e+02	2.876107e+02	2.882038e+02	2.886979e+02	2.891852e+02	2.896391e+02	2.900822e+02	2.905293e+02	2.909758e+02	2.914328e+02	2.919231e+02	2.924560e+02	2.931626e+02	2.944118e+02	2.916369e+02	2.842010e+02	2.846148e+02	2.851225e+02	2.851563e+02	2.852750e+02	2.853971e+02	2.854523e+02	2.855463e+02	2.855922e+02	2.855831e+02	2.855983e+02	2.854964e+02	2.854376e+02	2.853582e+02	2.852559e+02	2.851690e+02	2.850537e+02	2.849672e+02	2.849137e+02	2.848778e+02	2.848815e+02	2.849297e+02	2.850145e+02	2.851343e+02	2.852971e+02	2.854999e+02	2.857698e+02	2.860462e+02	2.865685e+02	2.870657e+02	2.873138e+02	2.877215e+02	2.877491e+02	2.879348e+02	2.880381e+02	2.869784e+02	2.860022e+02	2.847086e+02	2.820649e+02	2.790836e+02	2.759679e+02	2.710959e+02	2.623407e+02	2.451771e+02	2.350812e+02	2.363090e+02	2.439618e+02	2.519240e+02	2.608502e+02	2.665646e+02	2.708680e+02	2.752599e+02	2.776809e+02	2.786970e+02	2.793130e+02	2.783216e+02	2.766217e+02	2.748700e+02	2.722783e+02	2.687615e+02	2.588076e+02	2.364039e+02	2.291396e+02	2.312441e+02	2.365062e+02	2.418948e+02	2.451497e+02	2.485001e+02	2.517993e+02	2.536993e+02	2.546782e+02	2.545080e+02	2.535948e+02	2.514765e+02	2.503569e+02	2.510165e+02	2.511632e+02	2.535821e+02	2.575696e+02	2.611809e+02	2.670361e+02	2.713947e+02	2.750655e+02	2.793924e+02	2.825577e+02	2.850302e+02	2.875392e+02	2.895345e+02	2.908461e+02	2.919243e+02	2.926716e+02	2.932229e+02	2.938134e+02	2.948110e+02	2.965035e+02	2.987397e+02	3.007746e+02	3.021643e+02	
SCALARS Mach double 1
LOOKUP_TABLE default
3.213229e-01	5.305425e-01	5.605942e-01	6.194853e-01	6.529210e-01	6.726295e-01	6.749387e-01	6.548702e-01	6.243870e-01	5.928281e-01	5.661748e-01	5.506730e-01	5.514537e-01	5.711575e-01	6.225752e-01	6.976774e-01	7.876816e-01	8.988912e-01	1.015660e+00	1.148154e+00	1.250957e+00	1.329112e+00	1.394105e+00	1.420090e+00	1.439168e+00	1.441560e+00	1.426478e+00	1.408332e+00	1.389975e+00	1.366821e+00	1.356059e+00	1.373379e+00	1.397099e+00	1.424457e+00	1.478628e+00	1.521692e+00	1.597199e+00	1.676739e+00	1.709539e+00	1.740461e+00	1.743763e+00	1.606136e+00	1.219357e+00	6.713747e-01	5.806687e-01	5.752614e-01	5.726323e-01	5.908824e-01	6.342989e-01	6.724387e-01	7.311417e-01	8.066896e-01	8.613693e-01	9.127641e-01	9.396411e-01	8.998382e-01	8.431509e-01	7.697768e-01	7.004239e-01	6.555730e-01	6.079828e-01	5.683027e-01	5.449292e-01	5.234436e-01	5.055612e-01	4.990165e-01	4.919168e-01	4.887031e-01	4.888144e-01	4.872868e-01	4.912926e-01	4.965497e-01	5.048157e-01	5.159214e-01	5.268534e-01	5.403436e-01	5.517505e-01	5.609972e-01	5.685760e-01	5.667527e-01	5.629534e-01	5.558594e-01	5.454404e-01	5.367375e-01	5.248654e-01	5.139849e-01	5.033474e-01	4.924913e-01	4.832953e-01	4.740832e-01	4.653690e-01	4.567272e-01	4.478648e-01	4.388668e-01	4.294893e-01	4.192285e-01	4.078254e-01	3.922615e-01	3.633200e-01	4.252441e-01	5.624807e-01	5.555682e-01	5.469941e-01	5.464193e-01	5.443991e-01	5.423129e-01	5.413694e-01	5.397579e-01	5.389681e-01	5.391246e-01	5.388644e-01	5.406140e-01	5.416211e-01	5.429787e-01	5.447248e-01	5.462044e-01	5.481618e-01	5.496282e-01	5.505334e-01	5.511398e-01	5.510765e-01	5.502630e-01	5.488266e-01	5.467929e-01	5.440212e-01	5.405527e-01	5.359098e-01	5.311214e-01	5.219803e-01	5.131583e-01	5.087098e-01	5.013335e-01	5.008306e-01	4.974378e-01	4.955421e-01	5.147168e-01	5.318868e-01	5.539908e-01	5.971985e-01	6.433261e-01	6.891961e-01	7.572222e-01	8.714292e-01	1.078228e+00	1.194669e+00	1.180610e+00	1.092371e+00	9.987651e-01	8.901108e-01	8.173907e-01	7.603125e-01	6.993380e-01	6.642407e-01	6.491373e-01	6.398618e-01	6.547447e-01	6.797442e-01	7.048829e-01	7.410686e-01	7.885399e-01	9.154301e-01	1.179523e+00	1.262495e+00	1.238501e+00	1.178350e+00	1.116330e+00	1.078546e+00	1.039311e+00	1.000251e+00	9.775286e-01	9.657486e-01	9.678005e-01	9.787832e-01	1.004094e+00	1.017385e+00	1.009561e+00	1.007818e+00	9.789353e-01	9.306301e-01	8.859819e-01	8.112452e-01	7.531597e-01	7.021066e-01	6.386581e-01	5.893246e-01	5.485604e-01	5.046418e-01	4.673885e-01	4.414959e-01	4.192031e-01	4.031340e-01	3.909085e-01	3.774311e-01	3.536291e-01	3.095120e-01	2.401111e-01	1.530856e-01	1.821035e-02	
SCALARS Pressure_Coefficient double 1
LOOKUP_TABLE default