# vtk DataFile Version 3.0
vtk output
ASCII
DATASET UNSTRUCTURED_GRID
POINTS 1837 double
1.000000e+02	0.000000e+00	0.0	9.917900e+01	1.278772e+01	0.0	9.672949e+01	2.536546e+01	0.0	9.269168e+01	3.752670e+01	0.0	8.713187e+01	4.907176e+01	0.0	8.014136e+01	5.981105e+01	0.0	7.183494e+01	6.956826e+01	0.0	6.234898e+01	7.818315e+01	0.0	5.183926e+01	8.551428e+01	0.0	4.047833e+01	9.144126e+01	0.0	2.845276e+01	9.586679e+01	0.0	1.595999e+01	9.871818e+01	0.0	3.205158e+00	9.994862e+01	0.0	-9.602303e+00	9.953791e+01	0.0	-2.225209e+01	9.749279e+01	0.0	-3.453651e+01	9.384684e+01	0.0	-4.625383e+01	8.865993e+01	0.0	-5.721167e+01	8.201723e+01	0.0	-6.723009e+01	7.402780e+01	0.0	-7.614460e+01	6.482284e+01	0.0	-8.380881e+01	5.455349e+01	0.0	-9.009689e+01	4.338837e+01	0.0	-9.490557e+01	3.151082e+01	0.0	-9.815592e+01	1.911586e+01	0.0	-9.979454e+01	6.407022e+00	0.0	-9.979454e+01	-6.407022e+00	0.0	-9.815592e+01	-1.911586e+01	0.0	-9.490557e+01	-3.151082e+01	0.0	-9.009689e+01	-4.338837e+01	0.0	-8.380881e+01	-5.455349e+01	0.0	-7.614460e+01	-6.482284e+01	0.0	-6.723009e+01	-7.402780e+01	0.0	-5.721167e+01	-8.201723e+01	0.0	-4.625383e+01	-8.865993e+01	0.0	-3.453651e+01	-9.384684e+01	0.0	-2.225209e+01	-9.749279e+01	0.0	-9.602303e+00	-9.953791e+01	0.0	3.205158e+00	-9.994862e+01	0.0	1.595999e+01	-9.871818e+01	0.0	2.845276e+01	-9.586679e+01	0.0	4.047833e+01	-9.144126e+01	0.0	5.183926e+01	-8.551428e+01	0.0	6.234898e+01	-7.818315e+01	0.0	7.183494e+01	-6.956826e+01	0.0	8.014136e+01	-5.981105e+01	0.0	8.713187e+01	-4.907176e+01	0.0	9.269168e+01	-3.752670e+01	0.0	9.672949e+01	-2.536546e+01	0.0	9.917900e+01	-1.278772e+01	0.0	0.000000e+00	0.000000e+00	0.0	3.220623e-03	3.824603e-03	0.0	6.640419e-03	7.704100e-03	0.0	1.111314e-02	1.069167e-02	0.0	1.581000e-02	1.368008e-02	0.0	2.106303e-02	1.608440e-02	0.0	2.653197e-02	1.850625e-02	0.0	3.234231e-02	2.065399e-02	0.0	3.837964e-02	2.280363e-02	0.0	4.471305e-02	2.476535e-02	0.0	5.130725e-02	2.662186e-02	0.0	5.820455e-02	2.823275e-02	0.0	6.540189e-02	2.949841e-02	0.0	7.288120e-02	3.053574e-02	0.0	8.065350e-02	3.104092e-02	0.0	8.866653e-02	3.158771e-02	0.0	9.691434e-02	3.228195e-02	0.0	1.053344e-01	3.354076e-02	0.0	1.139551e-01	3.516952e-02	0.0	1.226449e-01	3.755293e-02	0.0	1.314957e-01	4.032782e-02	0.0	1.405513e-01	4.328715e-02	0.0	1.497937e-01	4.648577e-02	0.0	1.592742e-01	4.976679e-02	0.0	1.691537e-01	5.261237e-02	0.0	1.792957e-01	5.545385e-02	0.0	1.897585e-01	5.796514e-02	0.0	2.006758e-01	5.949431e-02	0.0	2.118316e-01	6.105688e-02	0.0	2.233011e-01	6.148653e-02	0.0	2.350341e-01	6.145192e-02	0.0	2.469897e-01	6.129856e-02	0.0	2.591478e-01	6.057988e-02	0.0	2.715186e-01	5.984862e-02	0.0	2.841043e-01	5.932023e-02	0.0	2.968926e-01	5.890521e-02	0.0	3.098677e-01	5.861617e-02	0.0	3.230116e-01	5.929977e-02	0.0	3.363235e-01	5.999211e-02	0.0	3.497544e-01	6.116355e-02	0.0	3.633058e-01	6.265271e-02	0.0	3.769886e-01	6.416906e-02	0.0	3.907780e-01	6.581895e-02	0.0	4.046747e-01	6.748168e-02	0.0	4.186939e-01	6.887655e-02	0.0	4.328133e-01	7.008380e-02	0.0	4.470030e-01	7.123293e-02	0.0	4.612816e-01	7.179074e-02	0.0	4.755974e-01	7.235000e-02	0.0	4.899420e-01	7.264400e-02	0.0	5.042981e-01	7.277202e-02	0.0	5.186467e-01	7.287390e-02	0.0	5.329733e-01	7.281101e-02	0.0	5.472626e-01	7.274828e-02	0.0	5.614995e-01	7.263211e-02	0.0	5.756698e-01	7.248829e-02	0.0	5.897581e-01	7.228517e-02	0.0	6.037449e-01	7.178566e-02	0.0	6.176238e-01	7.129000e-02	0.0	6.313526e-01	7.032576e-02	0.0	6.449338e-01	6.913904e-02	0.0	6.583506e-01	6.781150e-02	0.0	6.715049e-01	6.565546e-02	0.0	6.844933e-01	6.352663e-02	0.0	6.972106e-01	6.094357e-02	0.0	7.096808e-01	5.807907e-02	0.0	7.219568e-01	5.525004e-02	0.0	7.339466e-01	5.211679e-02	0.0	7.457301e-01	4.903741e-02	0.0	7.573109e-01	4.605277e-02	0.0	7.686837e-01	4.316752e-02	0.0	7.798340e-01	4.034877e-02	0.0	7.908432e-01	3.796360e-02	0.0	8.016171e-01	3.562942e-02	0.0	8.121983e-01	3.357651e-02	0.0	8.225558e-01	3.166448e-02	0.0	8.326820e-01	2.987709e-02	0.0	8.425774e-01	2.822606e-02	0.0	8.522248e-01	2.661932e-02	0.0	8.616252e-01	2.506599e-02	0.0	8.707767e-01	2.355380e-02	0.0	8.796761e-01	2.206015e-02	0.0	8.883275e-01	2.060285e-02	0.0	8.967315e-01	1.917697e-02	0.0	9.048886e-01	1.777312e-02	0.0	9.128043e-01	1.641080e-02	0.0	9.204766e-01	1.506179e-02	0.0	9.279124e-01	1.374837e-02	0.0	9.351138e-01	1.246317e-02	0.0	9.420824e-01	1.119624e-02	0.0	9.488264e-01	9.969678e-03	0.0	9.553439e-01	8.752225e-03	0.0	9.616451e-01	7.575178e-03	0.0	9.677299e-01	6.414232e-03	0.0	9.736066e-01	5.288727e-03	0.0	9.792763e-01	4.179516e-03	0.0	9.847463e-01	3.100227e-03	0.0	9.900201e-01	2.043026e-03	0.0	9.951019e-01	1.004424e-03	0.0	1.000000e+00	0.000000e+00	0.0	9.950050e-01	2.218488e-04	0.0	9.898213e-01	4.153855e-04	0.0	9.844437e-01	5.595312e-04	0.0	9.788679e-01	6.603825e-04	0.0	9.730896e-01	7.375323e-04	0.0	9.671039e-01	7.580487e-04	0.0	9.609067e-01	7.560043e-04	0.0	9.544935e-01	6.887420e-04	0.0	9.478598e-01	6.055686e-04	0.0	9.410030e-01	4.260342e-04	0.0	9.339173e-01	2.405052e-04	0.0	9.266021e-01	-5.041885e-05	0.0	9.190515e-01	-3.741083e-04	0.0	9.112630e-01	-7.448472e-04	0.0	9.032349e-01	-1.190859e-03	0.0	8.949616e-01	-1.650497e-03	0.0	8.864435e-01	-2.171702e-03	0.0	8.776762e-01	-2.714959e-03	0.0	8.686582e-01	-3.279868e-03	0.0	8.593887e-01	-3.869128e-03	0.0	8.498666e-01	-4.479001e-03	0.0	8.400969e-01	-5.180085e-03	0.0	8.300748e-01	-5.899274e-03	0.0	8.198328e-01	-6.975605e-03	0.0	8.093496e-01	-8.162462e-03	0.0	7.986824e-01	-9.798528e-03	0.0	7.878213e-01	-1.179826e-02	0.0	7.767719e-01	-1.406218e-02	0.0	7.656371e-01	-1.702831e-02	0.0	7.542772e-01	-2.005438e-02	0.0	7.427821e-01	-2.343587e-02	0.0	7.310978e-01	-2.696039e-02	0.0	7.191906e-01	-3.048446e-02	0.0	7.070156e-01	-3.382428e-02	0.0	6.946495e-01	-3.721651e-02	0.0	6.819652e-01	-4.007769e-02	0.0	6.690145e-01	-4.258594e-02	0.0	6.558919e-01	-4.508595e-02	0.0	6.424369e-01	-4.639494e-02	0.0	6.288361e-01	-4.771811e-02	0.0	6.150741e-01	-4.865690e-02	0.0	6.011646e-01	-4.922697e-02	0.0	5.871465e-01	-4.979785e-02	0.0	5.730269e-01	-5.017914e-02	0.0	5.588262e-01	-5.056262e-02	0.0	5.445641e-01	-5.109306e-02	0.0	5.302543e-01	-5.175241e-02	0.0	5.159076e-01	-5.242209e-02	0.0	5.015461e-01	-5.324272e-02	0.0	4.871771e-01	-5.406378e-02	0.0	4.728111e-01	-5.479711e-02	0.0	4.584643e-01	-5.546546e-02	0.0	4.441534e-01	-5.608573e-02	0.0	4.298824e-01	-5.629972e-02	0.0	4.156781e-01	-5.651272e-02	0.0	4.015549e-01	-5.646030e-02	0.0	3.875267e-01	-5.625262e-02	0.0	3.736072e-01	-5.604033e-02	0.0	3.598100e-01	-5.579463e-02	0.0	3.461471e-01	-5.555132e-02	0.0	3.326297e-01	-5.554802e-02	0.0	3.192697e-01	-5.566434e-02	0.0	3.060822e-01	-5.588379e-02	0.0	2.930904e-01	-5.660861e-02	0.0	2.802873e-01	-5.732291e-02	0.0	2.677005e-01	-5.828395e-02	0.0	2.553287e-01	-5.935916e-02	0.0	2.431711e-01	-6.042514e-02	0.0	2.312387e-01	-6.152743e-02	0.0	2.195325e-01	-6.260882e-02	0.0	2.080451e-01	-6.350549e-02	0.0	1.967863e-01	-6.428197e-02	0.0	1.857667e-01	-6.498950e-02	0.0	1.749695e-01	-6.514793e-02	0.0	1.644205e-01	-6.530271e-02	0.0	1.541377e-01	-6.492600e-02	0.0	1.441181e-01	-6.417320e-02	0.0	1.343636e-01	-6.334852e-02	0.0	1.250254e-01	-6.138923e-02	0.0	1.159351e-01	-5.948194e-02	0.0	1.072941e-01	-5.692446e-02	0.0	9.905370e-02	-5.388203e-02	0.0	9.104783e-02	-5.092619e-02	0.0	8.359797e-02	-4.730008e-02	0.0	7.637356e-02	-4.377073e-02	0.0	6.943200e-02	-4.022305e-02	0.0	6.279704e-02	-3.660439e-02	0.0	5.636973e-02	-3.309899e-02	0.0	5.009043e-02	-2.981088e-02	0.0	4.401002e-02	-2.663650e-02	0.0	3.805747e-02	-2.370901e-02	0.0	3.227638e-02	-2.093181e-02	0.0	2.667280e-02	-1.828476e-02	0.0	2.126532e-02	-1.571872e-02	0.0	1.612793e-02	-1.307254e-02	0.0	1.128197e-02	-1.032179e-02	0.0	6.731411e-03	-7.456688e-03	0.0	2.758281e-03	-4.121705e-03	0.0	5.867051e-01	1.276079e-01	0.0	5.639716e-01	1.175771e-01	0.0	5.812840e-01	1.043042e-01	0.0	8.393579e+01	2.918803e+01	0.0	8.078063e+01	2.053209e+01	0.0	8.883212e+01	1.830755e+01	0.0	7.553056e+01	-1.219804e+01	0.0	7.569105e+01	-2.461865e+01	0.0	8.701662e+01	-1.777522e+01	0.0	8.654745e+01	-4.391226e+00	0.0	3.606507e+01	2.273692e+01	0.0	4.633313e+01	2.853047e+01	0.0	3.801025e+01	3.648405e+01	0.0	7.310055e+01	2.536921e+01	0.0	6.882870e+01	-3.526440e+01	0.0	7.532435e+01	-4.320476e+01	0.0	8.112700e+01	-3.627969e+01	0.0	8.665117e+01	-2.831315e+01	0.0	5.376071e+01	3.078177e+01	0.0	5.259025e+01	3.893033e+01	0.0	7.202123e+01	-5.270733e+01	0.0	6.264338e+01	-5.040998e+01	0.0	6.279334e+01	-5.829388e+01	0.0	6.897748e+01	5.971380e+01	0.0	7.361396e+01	4.866810e+01	0.0	6.044823e+01	6.564055e+01	0.0	4.753370e+01	-6.393878e+01	0.0	4.547341e+01	-7.378573e+01	0.0	5.430844e+01	-7.200958e+01	0.0	6.735991e+01	-4.470541e+01	0.0	4.908395e+01	7.176856e+01	0.0	2.650187e+01	6.804626e+01	0.0	2.930511e+01	5.691768e+01	0.0	3.586933e+01	6.908641e+01	0.0	5.340241e+01	-5.392510e+01	0.0	5.603099e+01	-6.331234e+01	0.0	3.052764e+01	8.611421e+01	0.0	3.973917e+01	8.040473e+01	0.0	3.651358e+01	-6.667709e+01	0.0	2.605679e+01	-7.483563e+01	0.0	3.830587e+01	-7.996109e+01	0.0	6.101686e+00	4.670717e+01	0.0	-4.320076e+00	4.393558e+01	0.0	2.969404e+00	3.811860e+01	0.0	8.943812e+00	7.888691e+01	0.0	1.927533e+01	7.431101e+01	0.0	1.668071e+01	8.290665e+01	0.0	1.509362e+01	3.747461e+01	0.0	2.437634e+01	4.598590e+01	0.0	1.688036e+01	5.110163e+01	0.0	6.195521e+00	-5.447624e-02	0.0	8.677354e+00	6.273578e-01	0.0	6.806323e+00	2.689025e+00	0.0	3.884666e+00	1.479039e+00	0.0	4.499381e+00	2.893111e+00	0.0	2.942222e+00	2.506242e+00	0.0	1.716485e-01	6.258446e-02	0.0	4.102466e-01	9.224564e-02	0.0	4.065819e-01	7.783126e-02	0.0	4.175167e-01	8.147813e-02	0.0	3.552598e-01	1.047850e-01	0.0	3.515739e-01	1.278106e-01	0.0	3.401220e-01	1.090828e-01	0.0	3.859989e-01	-1.615844e-01	0.0	4.301374e-01	-1.565169e-01	0.0	4.035643e-01	-1.280355e-01	0.0	4.131971e-01	-7.666326e-02	0.0	4.224785e-01	-6.775001e-02	0.0	4.116518e-01	-6.568136e-02	0.0	4.034599e-01	-7.001685e-02	0.0	3.918565e-01	-4.545749e-01	0.0	3.649259e-01	-3.387682e-01	0.0	2.652016e-01	-3.992883e-01	0.0	8.961620e-01	-1.600165e-02	0.0	8.876570e-01	-2.579489e-02	0.0	8.993708e-01	-2.504088e-02	0.0	8.078386e-01	-7.228732e-02	0.0	7.952950e-01	-5.2312
[...]
POINT_DATA 1837

SCALARS Density double 1
LOOKUP_TABLE default
1.291807e+00	1.291817e+00	1.292045e+00	1.292136e+00	1.292070e+00	1.291979e+00	1.291915e+00	1.291846e+00	1.291760e+00	1.291675e+00	1.291606e+00	1.291571e+00	1.291575e+00	1.291639e+00	1.291751e+00	1.291867e+00	1.291973e+00	1.292052e+00	1.292118e+00	1.292167e+00	1.292202e+00	1.292230e+00	1.292250e+00	1.292266e+00	1.292281e+00	1.292295e+00	1.292310e+00	1.292327e+00	1.292347e+00	1.292374e+00	1.292407e+00	1.292454e+00	1.292513e+00	1.292588e+00	1.292676e+00	1.292781e+00	1.292885e+00	1.292972e+00	1.292990e+00	1.292963e+00	1.292899e+00	1.292812e+00	1.292723e+00	1.292631e+00	1.292543e+00	1.292479e+00	1.292457e+00	1.292347e+00	1.292070e+00	1.503847e+00	1.099753e+00	1.077907e+00	1.003534e+00	9.692933e-01	9.453672e-01	9.520474e-01	9.456093e-01	9.372871e-01	9.081361e-01	8.662068e-01	8.059909e-01	7.987170e-01	9.010137e-01	1.119626e+00	1.230206e+00	1.273078e+00	1.287920e+00	1.291019e+00	1.281832e+00	1.245532e+00	1.209774e+00	1.168557e+00	1.095347e+00	1.034079e+00	9.822706e-01	8.820663e-01	8.071243e-01	7.381856e-01	6.608209e-01	6.268006e-01	6.023749e-01	5.821487e-01	5.972740e-01	6.241833e-01	6.405467e-01	7.082805e-01	7.760745e-01	8.116049e-01	8.626410e-01	8.991708e-01	9.291498e-01	9.525817e-01	9.489115e-01	9.288387e-01	9.138945e-01	8.778666e-01	8.480637e-01	8.381843e-01	8.278053e-01	8.293265e-01	8.319228e-01	8.335088e-01	8.395043e-01	8.453031e-01	8.517879e-01	8.455693e-01	8.410084e-01	8.272983e-01	7.996827e-01	7.883856e-01	7.394830e-01	6.949271e-01	6.781662e-01	7.128752e-01	9.057872e-01	1.155582e+00	1.195135e+00	1.209026e+00	1.223812e+00	1.237874e+00	1.255060e+00	1.262561e+00	1.263823e+00	1.269243e+00	1.267195e+00	1.267343e+00	1.265653e+00	1.263771e+00	1.264340e+00	1.264516e+00	1.266145e+00	1.268496e+00	1.270616e+00	1.273539e+00	1.276288e+00	1.279315e+00	1.283365e+00	1.286548e+00	1.291007e+00	1.295086e+00	1.299786e+00	1.305037e+00	1.310396e+00	1.316484e+00	1.323264e+00	1.331721e+00	1.343041e+00	1.354840e+00	1.352264e+00	1.441032e+00	1.418313e+00	1.417483e+00	1.419832e+00	1.419044e+00	1.419433e+00	1.419413e+00	1.420532e+00	1.420086e+00	1.420291e+00	1.420444e+00	1.417784e+00	1.418150e+00	1.416052e+00	1.414852e+00	1.414242e+00	1.412893e+00	1.413326e+00	1.414493e+00	1.418346e+00	1.420827e+00	1.430708e+00	1.436118e+00	1.440611e+00	1.446778e+00	1.441149e+00	1.443996e+00	1.431882e+00	1.413180e+00	1.397640e+00	1.369093e+00	1.336489e+00	1.309186e+00	1.267025e+00	1.225014e+00	1.203424e+00	1.145801e+00	1.133673e+00	1.156890e+00	1.159747e+00	1.185268e+00	1.206396e+00	1.224313e+00	1.248208e+00	1.262437e+00	1.266371e+00	1.269655e+00	1.267485e+00	1.257918e+00	1.251103e+00	1.245203e+00	1.230910e+00	1.229986e+00	1.234007e+00	1.236283e+00	1.252392e+00	1.267055e+00	1.280303e+00	1.298348e+00	1.310912e+00	1.315895e+00	1.330044e+00	1.329133e+00	1.320884e+00	1.315576e+00	1.299695e+00	1.284152e+00	1.267124e+00	1.240320e+00	1.215491e+00	1.189573e+00	1.146422e+00	1.118376e+00	1.077769e+00	1.018941e+00	9.849599e-01	9.519195e-01	9.929438e-01	1.052380e+00	1.092331e+00	1.175705e+00	1.215995e+00	1.269660e+00	1.341021e+00	1.373984e+00	1.415620e+00	1.453281e+00	1.478901e+00	1.501045e+00	1.519472e+00	1.532606e+00	1.546282e+00	1.556734e+00	1.571154e+00	1.590784e+00	1.611449e+00	1.615146e+00	1.696345e+00	8.827808e-01	8.650962e-01	8.709622e-01	1.292083e+00	1.292034e+00	1.291981e+00	1.292195e+00	1.292392e+00	1.292249e+00	1.292000e+00	1.291901e+00	1.291897e+00	1.291685e+00	1.292045e+00	1.292505e+00	1.292496e+00	1.292442e+00	1.292387e+00	1.291958e+00	1.291879e+00	1.292554e+00	1.292609e+00	1.292644e+00	1.291921e+00	1.291983e+00	1.291850e+00	1.292806e+00	1.292844e+00	1.292762e+00	1.292542e+00	1.291749e+00	1.291498e+00	1.291498e+00	1.291615e+00	1.292703e+00	1.292723e+00	1.291599e+00	1.291665e+00	1.292935e+00	1.293035e+00	1.292917e+00	1.290877e+00	1.290827e+00	1.290480e+00	1.291431e+00	1.291445e+00	1.291488e+00	1.290936e+00	1.291354e+00	1.291166e+00	1.290511e+00	1.290296e+00	1.291269e+00	1.290926e+00	1.290023e+00	1.285707e+00	1.042206e+00	9.730177e-01	9.567179e-01	9.478985e-01	7.326643e-01	6.584128e-01	6.481269e-01	1.281840e+00	1.271688e+00	1.272826e+00	1.253310e+00	1.242727e+00	1.247278e+00	1.256506e+00	1.298653e+00	1.291599e+00	1.298841e+00	1.413102e+00	1.411950e+00	1.411618e+00	1.396876e+00	1.405152e+00	1.383531e+00	1.300753e+00	1.326708e+00	1.250629e+00	1.291440e+00	1.314659e+00	1.288339e+00	1.382785e+00	1.400405e+00	1.229785e+00	1.340601e+00	1.308536e+00	1.418994e+00	1.418723e+00	1.417455e+00	1.407236e+00	1.402642e+00	1.402361e+00	1.270007e+00	1.269155e+00	1.271910e+00	1.272949e+00	1.265605e+00	1.278251e+00	1.417018e+00	1.416217e+00	1.417996e+00	1.336344e+00	1.325574e+00	1.337869e+00	1.232244e+00	1.213132e+00	1.222724e+00	1.201028e+00	1.200989e+00	1.166049e+00	1.416072e+00	1.415540e+00	1.416742e+00	1.396392e+00	1.404887e+00	1.521208e+00	1.530250e+00	1.496683e+00	1.399398e+00	1.406918e+00	1.377300e+00	1.493116e+00	1.514779e+00	1.478885e+00	1.603543e+00	1.605329e+00	1.630630e+00	1.408190e+00	1.383803e+00	1.566022e+00	1.581998e+00	1.578574e+00	1.568643e+00	1.602564e+00	1.607647e+00	1.567471e+00	1.403910e+00	1.408857e+00	1.393074e+00	1.257945e+00	1.374085e+00	1.386259e+00	1.422961e+00	1.430660e+00	1.167864e+00	1.161768e+00	1.435290e+00	1.430056e+00	1.438082e+00	1.425486e+00	1.433329e+00	1.414211e+00	1.422219e+00	1.434492e+00	1.439580e+00	1.311027e+00	1.313458e+00	1.316443e+00	1.404444e+00	1.409030e+00	1.417213e+00	1.083575e+00	1.196858e+00	1.136094e+00	1.150105e+00	8.143168e-01	8.850256e-01	7.735841e-01	1.267518e+00	1.289890e+00	1.272656e+00	8.220640e-01	7.382551e-01	8.141159e-01	6.537431e-01	6.887575e-01	1.244443e+00	1.080428e+00	1.108654e+00	1.003345e+00	1.243648e+00	1.176028e+00	1.227849e+00	1.255034e+00	1.274004e+00	6.208044e-01	5.988102e-01	6.395353e-01	8.856752e-01	9.162856e-01	9.282611e-01	9.435633e-01	9.606335e-01	8.920228e-01	9.179452e-01	9.114057e-01	1.267542e+00	1.267823e+00	1.263710e+00	1.286094e+00	1.272787e+00	1.253305e+00	1.246593e+00	1.254527e+00	1.273489e+00	1.275983e+00	1.268202e+00	1.258948e+00	1.285709e+00	1.284764e+00	1.278064e+00	7.553509e-01	1.262512e+00	1.264721e+00	1.258072e+00	1.281988e+00	1.282100e+00	1.268455e+00	1.265664e+00	1.267697e+00	1.257783e+00	1.250647e+00	1.260730e+00	1.248549e+00	1.290608e+00	1.300626e+00	1.134431e+00	1.165362e+00	1.020248e+00	1.056653e+00	1.313058e+00	1.320694e+00	1.320660e+00	1.316454e+00	1.310451e+00	9.998513e-01	1.004353e+00	1.125757e+00	1.162433e+00	1.108535e+00	1.319399e+00	1.314006e+00	1.312195e+00	1.283218e+00	1.297070e+00	1.293277e+00	1.413133e+00	8.599232e-01	8.573584e-01	8.836178e-01	7.347475e-01	6.625368e-01	9.557388e-01	9.503356e-01	9.879824e-01	8.398876e-01	8.167016e-01	8.898366e-01	8.152461e-01	8.518772e-01	8.389118e-01	8.446597e-01	1.413984e+00	1.414082e+00	1.414254e+00	1.411659e+00	1.411407e+00	1.413399e+00	1.413274e+00	1.416518e+00	1.419672e+00	1.183765e+00	1.168930e+00	1.223027e+00	1.223092e+00	1.238830e+00	1.205261e+00	1.185295e+00	1.188078e+00	1.240521e+00	1.265760e+00	1.260884e+00	1.292197e+00	1.292955e+00	1.283919e+00	1.264223e+00	1.266004e+00	1.262928e+00	1.293042e+00	1.292979e+00	1.264288e+00	1.265338e+00	1.261754e+00	1.239428e+00	1.275686e+00	1.259584e+00	1.264409e+00	1.265461e+00	1.264935e+00	8.524582e-01	8.514887e-01	6.947449e-01	7.839574e-01	7.155178e-01	1.286473e+00	1.282483e+00	1.257334e+00	1.263712e+00	1.288397e+00	1.300625e+00	1.203004e+00	1.159472e+00	1.223667e+00	1.132788e+00	1.168054e+00	1.094760e+00	1.269673e+00	1.302561e+00	1.314915e+00	1.293036e+00	1.292994e+00	1.292941e+00	1.232576e+00	1.312243e+00	1.308389e+00	1.307915e+00	1.316205e+00	1.292891e+00	1.292756e+00	1.292717e+00	1.268133e+00	1.394716e+00	1.495298e+00	1.293220e+00	1.293092e+00	1.293144e+00	1.392715e+00	1.423203e+00	1.426194e+00	1.482089e+00	1.292811e+00	1.483457e+00	1.456288e+00	1.539749e+00	1.294081e+00	1.293615e+00	1.294015e+00	1.447152e+00	1.423666e+00	1.457197e+00	1.292553e+00	1.292688e+00	1.292580e+00	1.301402e+00	1.299403e+00	1.298845e+00	1.292629e+00	1.294568e+00	1.292439e+00	1.292063e+00	1.292236e+00	1.292495e+00	1.292542e+00	1.292454e+00	1.292306e+00	1.292310e+00	1.292285e+00	1.292426e+00	1.292371e+00	1.292391e+00	1.292347e+00	1.292334e+00	1.292283e+00	1.292261e+00	1.292217e+00	1.292247e+00	1.292226e+00	1.292175e+00	1.292144e+00	1.292195e+00	8.166044e-01	8.696624e-01	1.291161e+00	1.292332e+00	1.291076e+00	1.291608e+00	1.291753e+00	1.291806e+00	1.286940e+00	1.301797e+00	1.293476e+00	1.299219e+00	1.291670e+00	1.291817e+00	1.291081e+00	1.291634e+00	1.291806e+00	1.291927e+00	1.292107e+00	1.280593e+00	1.222208e+00	1.255040e+00	1.291900e+00	9.985494e-01	8.441390e-01	1.180378e+00	1.169217e+00	1.196685e+00	1.119479e+00	1.046866e+00	1.097153e+00	1.291744e+00	1.291810e+00	1.284531e+00	1.289517e+00	1.279367e+00	1.302321e+00	1.299888e+00	1.305435e+00	1.232365e+00	1.186788e+00	1.301706e+00	1.297796e+00	1.304043e+00	1.311729e+00	1.249331e+00	1.240120e+00	1.331823e+00	1.327761e+00	1.324932e+00	1.329918e+00	1.337698e+00	1.291197e+00	1.338578e+00	1.339510e+00	1.347460e+00	1.200514e+00	1.214801e+00	1.234212e+00	1.291709e+00	1.291680e+00	6.131089e-01	6.239058e-01	8.590286e-01	1.291618e+00	8.556986e-01	8.623796e-01	9.581915e-01	9.968921e-01	8.717656e-01	8.587549e-01	8.520209e-01	8.564389e-01	8.407044e-01	8.282270e-01	8.821007e-01	8.793538e-01	1.347689e+00	1.351808e+00	1.370068e+00	1.361334e+00	1.383862e+00	1.322467e+00	1.317625e+00	1.327396e+00	1.338379e+00	1.333780e+00	1.277527e+00	1.293500e+00	1.291645e+00	1.289243e+00	1.287800e+00	1.207785e+00	1.216771e+00	1.224826e+00	1.151265e+00	1.220895e+00	1.227904e+00	1.206037e+00	1.291334e+00	1.291061e+00	1.291208e+00	1.071941e+00	8.081955e-01	7.884897e-01	9.046341e-01	1.010819e+00	9.659048e-01	7.735732e-01	7.015371e-01	1.206712e+00	1.222303e+00	1.143610e+00	1.292179e+00	1.291058e+00	1.292255e+00	1.292293e+00	1.222123e+00	1.126271e+00	1.291996e+00	1.292044e+00	1.294028e+00	1.294746e+00	1.293408e+00	1.404286e+00	1.410157e+00	1.405799e+00	1.294016e+00	1.294083e+00	1.294992e+00	1.292416e+00	1.292384e+00	1.292602e+00	1.292815e+00	1.292777e+00	1.292067e+00	1.292250e+00	1.292580e+00	1.292980e+00	1.292876e+00	1.293804e+00	1.291547e+00	1.291508e+00	1.291944e+00	1.291872e+00	1.291962e+00	1.292610e+00	1.292281e+00	1.292080e+00	1.292150e+00	1.293382e+00	1.293398e+00	1.293073e+00	1.291897e+00	1.292087e+00	1.285310e+00	1.266308e+00	1.277857e+00	1.291971e+00	1.292075e+00	1.291866e+00	1.292108e+00	1.288689e+00	1.288807e+00	1.289551e+00	1.286746e+00	1.287451e+00	1.293162e+00	1.292888e+00	1.292720e+00	1.292661e+00	1.292338e+00	1.292354e+00	1.292171e+00	1.292237e+00	1.292176e+00	1.292113e+00	1.292189e+00	1.291506e+00	1.291548e+00	1.293242e+00	1.293393e+00	1.292040e+00	1.292075e+00	1.291959e+00	1.291875e+00	1.291728e+00	1.291582e+00	1.291976e+00	1.292001e+00	1.291969e+00	1.292338e+00	1.292469e+00	1.293374e+00	1.293112e+00	1.293395e+00	1.292670e+00	1.292656e+00	1.292537e+00	1.291906e+00	1.291558e+00	1.292497e+00	1.056685e+00	1.205373e+00	1.227553e+00	1.273975e+00	1.533340e+00	1.291447e+00	1.292432e+00	1.293146e+00	1.293272e+00	1.290960e+00	1.291474e+00	1.291154e+00	1.291411e+00	1.292275e+00	1.292551e+00	1.291380e+00	1.291465e+00	1.293020e+00	1.293191e+00	1.293066e+00	1.292685e+00	1.294136e+00	1.295347e+00	1.148566e+00	1.295286e+00	1.296680e+00	1.296197e+00	1.290685e+00	1.293109e+00	1.294215e+00	1.293199e+00	1.295117e+00	1.296215e+00	1.289948e+00	1.290477e+00	1.289726e+00	1.292024e+00	1.291932e+00	1.291990e+00	1.292341e+00	1.292319e+00	1.292854e+00	1.292992e+00	1.292804e+00	1.291366e+00	1.292222e+00	1.292452e+00	1.292397e+00	1.292484e+00	1.292462e+00	1.292027e+00	1.293027e+00	1.291313e+00	1.291151e+00	1.291564e+00	1.293001e+00	1.293162e+00	1.291535e+00	1.291997e+00	1.292019e+00	1.292000e+00	1.292521e+00	1.292602e+00	1.292682e+00	1.292858e+00	1.293072e+00	1.291771e+00	1.292799e+00	1.291629e+00	1.291356e+00	1.292147e+00	1.293183e+00	1.292952e+00	1.291700e+00	1.293311e+00	1.293060e+00	1.292506e+00	1.290000e+00	1.293434e+00	1.292193e+00	1.292513e+00	1.292448e+00	1.291395e+00	1.291681e+00	1.292084e+00	1.292378e+00	1.291921e+00	1.291812e+00	1.291764e+00	1.292028e+00	1.291943e+00	1.291900e+00	1.292742e+00	1.291778e+00	1.291682e+00	1.291902e+00	1.292655e+00	1.291479e+00	1.285832e+00	1.282241e+00	1.281528e+00	1.293058e+00	1.293276e+00	1.293148e+00	1.292803e+00	1.293226e+00	1.292974e+00	1.290000e+00	1.289122e+00	1.290993e+00	1.291445e+00	1.292090e+00	1.297275e+00	1.299528e+00	1.294969e+00	1.288030e+00	1.289445e+00	1.288616e+00	1.290336e+00	1.290790e+00	1.295208e+00	1.293973e+00	1.334221e+00	1.419046e+00	1.278161e+00	1.296714e+00	1.300298e+00	1.297071e+00	1.291412e+00	1.301531e+00	1.297983e+00	1.301028e+00	1.284301e+00	1.284608e+00	1.294513e+00	1.288268e+00	1.299041e+00	1.297690e+00	1.194556e+00	1.293314e+00	1.287309e+00	1.295272e+00	1.295453e+00	1.293718e+00	1.289953e+00	1.290984e+00	1.297689e+00	1.418409e+00	1.418113e+00	1.292721e+00	1.273793e+00	1.258301e+00	1.290416e+00	1.283996e+00	1.275236e+00	1.294073e+00	1.346459e+00	1.338751e+00	1.364971e+00	1.294920e+00	1.297137e+00	9.893674e-01	1.027009e+00	9.829741e-01	1.280170e+00	1.295566e+00	1.293443e+00	1.297840e+00	1.301735e+00	1.300250e+00	1.306825e+00	1.303341e+00	1.300988e+00	1.305864e+00	1.290047e+00	1.294142e+00	1.288063e+00	1.285026e+00	1.275599e+00	1.285000e+00	1.305018e+00	1.305082e+00	1.311405e+00	1.275235e+00	1.265544e+00	1.301708e+00	1.305735e+00	1.321075e+00	1.287440e+00	1.284706e+00	1.278630e+00	1.304539e+00	1.303796e+00	1.288733e+00	1.293049e+00	1.293075e+00	1.295707e+00	1.299115e+00	1.298080e+00	1.374622e+00	1.275494e+00	1.318137e+00	1.299693e+00	1.299760e+00	1.258917e+00	1.253597e+00	1.294834e+00	1.289864e+00	1.271113e+00	1.304247e+00	1.296364e+00	1.280078e+00	1.417915e+00	1.311299e+00	1.309121e+00	1.313017e+00	1.315629e+00	1.310275e+00	1.061250e+00	1.036014e+00	1.296829e+00	1.252422e+00	1.292860e+00	1.293236e+00	1.197371e+00	1.135930e+00	1.305146e+00	1.311530e+00	1.316939e+00	1.321155e+00	1.305328e+00	1.285989e+00	1.306150e+00	9.687779e-01	9.829420e-01	1.416666e+00	1.413728e+00	1.416424e+00	1.315692e+00	1.268433e+00	1.245458e+00	1.292206e+00	1.294179e+00	1.291981e+00	1.326311e+00	1.324848e+00	1.315464e+00	1.222609e+00	1.314952e+00	1.323478e+00	1.318780e+00	1.313604e+00	1.286888e+00	1.307117e+00	1.315320e+00	1.308257e+00	1.284785e+00	1.294796e+00	1.318025e+00	1.316017e+00	1.314275e+00	1.298826e+00	1.313093e+00	1.307752e+00	1.306606e+00	1.125487e+00	9.995901e-01	1.133284e+00	1.236579e+00	1.186660e+00	1.136732e+00	1.276656e+00	1.127562e+00	1.073301e+00	1.029969e+00	1.300635e+00	1.319940e+00	1.309296e+00	1.055583e+00	1.087891e+00	1.099865e+00	1.361991e+00	1.354373e+00	1.346417e+00	1.333506e+00	1.335112e+00	1.236870e+00	1.256066e+00	1.250511e+00	1.334822e+00	1.323856e+00	1.321493e+00	1.329830e+00	1.416857e+00	1.319569e+00	1.374586e+00	1.362515e+00	1.373340e+00	1.320572e+00	1.334241e+00	1.120856e+00	1.323540e+00	1.321880e+00	1.298992e+00	1.307816e+00	1.355580e+00	1.339630e+00	1.396295e+00	1.432009e+00	1.404320e+00	1.183249e+00	1.243904e+00	8.819058e-01	8.720380e-01	1.044331e+00	1.369699e+00	1.256737e+00	1.261341e+00	1.268408e+00	1.271110e+00	1.099351e+00	1.302563e+00	1.303807e+00	1.306004e+00	1.301386e+00	1.324494e+00	1.291265e+00	1.312327e+00	1.307842e+00	1.284679e+00	1.321701e+00	1.333840e+00	1.329082e+00	1.318737e+00	1.301361e+00	1.552436e+00	1.320060e+00	1.312618e+00	1.300927e+00	1.305517e+00	1.316536e+00	1.177335e+00	1.324321e+00	1.306670e+00	1.342947e+00	1.320672e+00	1.296450e+00	1.299294e+00	1.193859e+00	1.272653e+00	1.109017e+00	9.863512e-01	1.339181e+00	1.354902e+00	1.376395e+00	1.357240e+00	1.241735e+00	1.205599e+00	1.262227e+00	1.143276e+00	1.172402e+00	1.179754e+00	9.135638e-01	1.004410e+00	1.348246e+00	1.340372e+00	1.353873e+00	1.285268e+00	1.342450e+00	1.318825e+00	1.317743e+00	1.348087e+00	1.212672e+00	1.286870e+00	9.987056e-01	8.385366e-01	8.976637e-01	1.350244e+00	1.365628e+00	1.307069e+00	1.258647e+00	1.241834e+00	1.252500e+00	1.232562e+00	1.266204e+00	1.286838e+00	1.274726e+00	1.278513e+00	1.151285e+00	1.363856e+00	1.271877e+00	1.027977e+00	1.074232e+00	9.497140e-01	1.345069e+00	1.339197e+00	1.376604e+00	1.414624e+00	1.419461e+00	1.335987e+00	1.349959e+00	1.341884e+00	8.402026e-01	1.373621e+00	1.303994e+00	1.364311e+00	1.458876e+00	1.424037e+00	1.283107e+00	1.275335e+00	1.283344e+00	1.255735e+00	1.272054e+00	1.044547e+00	9.142798e-01	9.458033e-01	8.913682e-01	9.028318e-01	8.043053e-01	8.864732e-01	1.369686e+00	1.341574e+00	1.213911e+00	1.181945e+00	1.142108e+00	9.378220e-01	1.288239e+00	1.314206e+00	1.267617e+00	1.268302e+00	1.269884e+00	1.257426e+00	1.279037e+00	1.273910e+00	1.287539e+00	1.286233e+00	1.306277e+00	1.313523e+00	1.304755e+00	1.413644e+00	1.413385e+00	1.385202e+00	1.352990e+00	1.320879e+00	1.330544e+00	1.349840e+00	1.012794e+00	1.013963e+00	9.410566e-01	1.306665e+00	1.286714e+00	1.445248e+00	1.436972e+00	1.326116e+00	1.297482e+00	1.066885e+00	1.104212e+00	1.003214e+00	1.119386e+00	1.271947e+00	1.280494e+00	1.266152e+00	1.321945e+00	1.314822e+00	1.348231e+00	1.392199e+00	1.391405e+00	1.418807e+00	1.326066e+00	1.374594e+00	1.322647e+00	1.372348e+00	1.419912e+00	1.402317e+00	1.382832e+00	1.370901e+00	1.278253e+00	1.289959e+00	1.280973e+00	1.271417e+00	1.268727e+00	1.283825e+00	1.416746e+00	1.455267e+00	1.564027e+00	1.581080e+00	1.549090e+00	1.310875e+00	1.349589e+00	1.314573e+00	1.312193e+00	8.853857e-01	9.068100e-01	7.565333e-01	7.406676e-01	6.923672e-01	7.630057e-01	1.290110e+00	1.254636e+00	1.262171e+00	1.436265e+00	1.330414e+00	1.297874e+00	1.255915e+00	6.871569e-01	7.049170e-01	6.382164e-01	1.249106e+00	1.154446e+00	1.142413e+00	1.218012e+00	1.272887e+00	8.962162e-01	9.497871e-01	8.852181e-01	8.678674e-01	8.772331e-01	1.367775e+00	8.763963e-01	9.266555e-01	9.053333e-01	6.971281e-01	1.228104e+00	1.276859e+00	1.361565e+00	1.362794e+00	1.370700e+00	1.387971e+00	7.941715e-01	6.411743e-01	8.315709e-01	9.354029e-01	1.284701e+00	1.373302e+00	1.391265e+00	1.395324e+00	1.384585e+00	1.382670e+00	1.392604e+00	1.319967e+00	1.265192e+00	1.330912e+00	1.320197e+00	1.338039e+00	1.328345e+00	1.296989e+00	1.355140e+00	1.315308e+00	1.370718e+00	1.196720e+00	1.194859e+00	1.248722e+00	1.372657e+00	1.403692e+00	1.360525e+00	9.987016e-01	8.743519e-01	8.522489e-01	8.649262e-01	9.224997e-01	9.054390e-01	1.168860e+00	1.196674e+00	1.161693e+00	1.254526e+00	1.248587e+00	1.179700e+00	1.252344e+00	1.265146e+00	1.443477e+00	1.386556e+00	1.224164e+00	1.219391e+00	1.250547e+00	1.321588e+00	1.296950e+00	1.277597e+00	1.277694e+00	1.274727e+00	1.270396e+00	1.269010e+00	1.214688e+00	1.239563e+00	1.355439e+00	1.330653e+00	1.363283e+00	1.247670e+00	1.251173e+00	1.283718e+00	1.518809e+00	1.500217e+00	1.510792e+00	1.156353e+00	1.398568e+00	1.290970e+00	1.465312e+00	1.498756e+00	8.879437e-01	8.368590e-01	7.900944e-01	1.159418e+00	1.232249e+00	1.156177e+00	1.125208e+00	1.359782e+00	9.016746e-01	8.777679e-01	1.419139e+00	1.277358e+00	1.286186e+00	1.300576e+00	9.653881e-01	9.868711e-01	9.602120e-01	1.403299e+00	1.407382e+00	1.413598e+00	8.646378e-01	1.317335e+00	1.368030e+00	8.854595e-01	8.575528e-01	8.739967e-01	9.788951e-01	9.771764e-01	7.681865e-01	6.773634e-01	1.395324e+00	1.278441e+00	6.791937e-01	6.792332e-01	8.537256e-01	1.263924e+00	1.261692e+00	7.952171e-01	1.333206e+00	9.746404e-01	1.506082e+00	1.469085e+00	1.091044e+00	8.407546e-01	8.550741e-01	1.201151e+00	1.306955e+00	1.313492e+00	1.308736e+00	1.428199e+00	1.426374e+00	1.431323e+00	1.425185e+00	1.222838e+00	1.290015e+00	1.215679e+00	1.235166e+00	1.015264e+00	1.040500e+00	8.592287e-01	8.433784e-01	1.407605e+00	1.192353e+00	1.215179e+00	8.740565e-01	1.254167e+00	1.251550e+00	1.470587e+00	1.281262e+00	1.286278e+00	1.275028e+00	1.274005e+00	1.272048e+00	1.282741e+00	1.262815e+00	1.397608e+00	1.390687e+00	1.385988e+00	1.269610e+00	1.260900e+00	1.259342e+00	1.249526e+00	1.241879e+00	1.267659e+00	1.331414e+00	1.326909e+00	1.358113e+00	1.413331e+00	1.399116e+00	1.323119e+00	1.204418e+00	1.654278e+00	1.538262e+00	8.263773e-01	7.440886e-01	7.929876e-01	1.249505e+00	1.259138e+00	8.950499e-01	8.553960e-01	1.260733e+00	1.380218e+00	1.372191e+00	1.367909