# vtk DataFile Version 3.0
vtk output
ASCII
DATASET UNSTRUCTURED_GRID
POINTS 198 double
0.000000e+00	0.000000e+00	0.0	3.220623e-03	3.824603e-03	0.0	6.640419e-03	7.704100e-03	0.0	1.111314e-02	1.069167e-02	0.0	1.581000e-02	1.368008e-02	0.0	2.106303e-02	1.608440e-02	0.0	2.653197e-02	1.850625e-02	0.0	3.234231e-02	2.065399e-02	0.0	3.837964e-02	2.280363e-02	0.0	4.471305e-02	2.476535e-02	0.0	5.130725e-02	2.662186e-02	0.0	5.820455e-02	2.823275e-02	0.0	6.540189e-02	2.949841e-02	0.0	7.288120e-02	3.053574e-02	0.0	8.065350e-02	3.104092e-02	0.0	8.866653e-02	3.158771e-02	0.0	9.691434e-02	3.228195e-02	0.0	1.053344e-01	3.354076e-02	0.0	1.139551e-01	3.516952e-02	0.0	1.226449e-01	3.755293e-02	0.0	1.314957e-01	4.032782e-02	0.0	1.405513e-01	4.328715e-02	0.0	1.497937e-01	4.648577e-02	0.0	1.592742e-01	4.976679e-02	0.0	1.691537e-01	5.261237e-02	0.0	1.792957e-01	5.545385e-02	0.0	1.897585e-01	5.796514e-02	0.0	2.006758e-01	5.949431e-02	0.0	2.118316e-01	6.105688e-02	0.0	2.233011e-01	6.148653e-02	0.0	2.350341e-01	6.145192e-02	0.0	2.469897e-01	6.129856e-02	0.0	2.591478e-01	6.057988e-02	0.0	2.715186e-01	5.984862e-02	0.0	2.841043e-01	5.932023e-02	0.0	2.968926e-01	5.890521e-02	0.0	3.098677e-01	5.861617e-02	0.0	3.230116e-01	5.929977e-02	0.0	3.363235e-01	5.999211e-02	0.0	3.497544e-01	6.116355e-02	0.0	3.633058e-01	6.265271e-02	0.0	3.769886e-01	6.416906e-02	0.0	3.907780e-01	6.581895e-02	0.0	4.046747e-01	6.748168e-02	0.0	4.186939e-01	6.887655e-02	0.0	4.328133e-01	7.008380e-02	0.0	4.470030e-01	7.123293e-02	0.0	4.612816e-01	7.179074e-02	0.0	4.755974e-01	7.235000e-02	0.0	4.899420e-01	7.264400e-02	0.0	5.042981e-01	7.277202e-02	0.0	5.186467e-01	7.287390e-02	0.0	5.329733e-01	7.281101e-02	0.0	5.472626e-01	7.274828e-02	0.0	5.614995e-01	7.263211e-02	0.0	5.756698e-01	7.248829e-02	0.0	5.897581e-01	7.228517e-02	0.0	6.037449e-01	7.178566e-02	0.0	6.176238e-01	7.129000e-02	0.0	6.313526e-01	7.032576e-02	0.0	6.449338e-01	6.913904e-02	0.0	6.583506e-01	6.781150e-02	0.0	6.715049e-01	6.565546e-02	0.0	6.844933e-01	6.352663e-02	0.0	6.972106e-01	6.094357e-02	0.0	7.096808e-01	5.807907e-02	0.0	7.219568e-01	5.525004e-02	0.0	7.339466e-01	5.211679e-02	0.0	7.457301e-01	4.903741e-02	0.0	7.573109e-01	4.605277e-02	0.0	7.686837e-01	4.316752e-02	0.0	7.798340e-01	4.034877e-02	0.0	7.908432e-01	3.796360e-02	0.0	8.016171e-01	3.562942e-02	0.0	8.121983e-01	3.357651e-02	0.0	8.225558e-01	3.166448e-02	0.0	8.326820e-01	2.987709e-02	0.0	8.425774e-01	2.822606e-02	0.0	8.522248e-01	2.661932e-02	0.0	8.616252e-01	2.506599e-02	0.0	8.707767e-01	2.355380e-02	0.0	8.796761e-01	2.206015e-02	0.0	8.883275e-01	2.060285e-02	0.0	8.967315e-01	1.917697e-02	0.0	9.048886e-01	1.777312e-02	0.0	9.128043e-01	1.641080e-02	0.0	9.204766e-01	1.506179e-02	0.0	9.279124e-01	1.374837e-02	0.0	9.351138e-01	1.246317e-02	0.0	9.420824e-01	1.119624e-02	0.0	9.488264e-01	9.969678e-03	0.0	9.553439e-01	8.752225e-03	0.0	9.616451e-01	7.575178e-03	0.0	9.677299e-01	6.414232e-03	0.0	9.736066e-01	5.288727e-03	0.0	9.792763e-01	4.179516e-03	0.0	9.847463e-01	3.100227e-03	0.0	9.900201e-01	2.043026e-03	0.0	9.951019e-01	1.004424e-03	0.0	1.000000e+00	0.000000e+00	0.0	9.950050e-01	2.218488e-04	0.0	9.898213e-01	4.153855e-04	0.0	9.844437e-01	5.595312e-04	0.0	9.788679e-01	6.603825e-04	0.0	9.730896e-01	7.375323e-04	0.0	9.671039e-01	7.580487e-04	0.0	9.609067e-01	7.560043e-04	0.0	9.544935e-01	6.887420e-04	0.0	9.478598e-01	6.055686e-04	0.0	9.410030e-01	4.260342e-04	0.0	9.339173e-01	2.405052e-04	0.0	9.266021e-01	-5.041885e-05	0.0	9.190515e-01	-3.741083e-04	0.0	9.112630e-01	-7.448472e-04	0.0	9.032349e-01	-1.190859e-03	0.0	8.949616e-01	-1.650497e-03	0.0	8.864435e-01	-2.171702e-03	0.0	8.776762e-01	-2.714959e-03	0.0	8.686582e-01	-3.279868e-03	0.0	8.593887e-01	-3.869128e-03	0.0	8.498666e-01	-4.479001e-03	0.0	8.400969e-01	-5.180085e-03	0.0	8.300748e-01	-5.899274e-03	0.0	8.198328e-01	-6.975605e-03	0.0	8.093496e-01	-8.162462e-03	0.0	7.986824e-01	-9.798528e-03	0.0	7.878213e-01	-1.179826e-02	0.0	7.767719e-01	-1.406218e-02	0.0	7.656371e-01	-1.702831e-02	0.0	7.542772e-01	-2.005438e-02	0.0	7.427821e-01	-2.343587e-02	0.0	7.310978e-01	-2.696039e-02	0.0	7.191906e-01	-3.048446e-02	0.0	7.070156e-01	-3.382428e-02	0.0	6.946495e-01	-3.721651e-02	0.0	6.819652e-01	-4.007769e-02	0.0	6.690145e-01	-4.258594e-02	0.0	6.558919e-01	-4.508595e-02	0.0	6.424369e-01	-4.639494e-02	0.0	6.288361e-01	-4.771811e-02	0.0	6.150741e-01	-4.865690e-02	0.0	6.011646e-01	-4.922697e-02	0.0	5.871465e-01	-4.979785e-02	0.0	5.730269e-01	-5.017914e-02	0.0	5.588262e-01	-5.056262e-02	0.0	5.445641e-01	-5.109306e-02	0.0	5.302543e-01	-5.175241e-02	0.0	5.159076e-01	-5.242209e-02	0.0	5.015461e-01	-5.324272e-02	0.0	4.871771e-01	-5.406378e-02	0.0	4.728111e-01	-5.479711e-02	0.0	4.584643e-01	-5.546546e-02	0.0	4.441534e-01	-5.608573e-02	0.0	4.298824e-01	-5.629972e-02	0.0	4.156781e-01	-5.651272e-02	0.0	4.015549e-01	-5.646030e-02	0.0	3.875267e-01	-5.625262e-02	0.0	3.736072e-01	-5.604033e-02	0.0	3.598100e-01	-5.579463e-02	0.0	3.461471e-01	-5.555132e-02	0.0	3.326297e-01	-5.554802e-02	0.0	3.192697e-01	-5.566434e-02	0.0	3.060822e-01	-5.588379e-02	0.0	2.930904e-01	-5.660861e-02	0.0	2.802873e-01	-5.732291e-02	0.0	2.677005e-01	-5.828395e-02	0.0	2.553287e-01	-5.935916e-02	0.0	2.431711e-01	-6.042514e-02	0.0	2.312387e-01	-6.152743e-02	0.0	2.195325e-01	-6.260882e-02	0.0	2.080451e-01	-6.350549e-02	0.0	1.967863e-01	-6.428197e-02	0.0	1.857667e-01	-6.498950e-02	0.0	1.749695e-01	-6.514793e-02	0.0	1.644205e-01	-6.530271e-02	0.0	1.541377e-01	-6.492600e-02	0.0	1.441181e-01	-6.417320e-02	0.0	1.343636e-01	-6.334852e-02	0.0	1.250254e-01	-6.138923e-02	0.0	1.159351e-01	-5.948194e-02	0.0	1.072941e-01	-5.692446e-02	0.0	9.905370e-02	-5.388203e-02	0.0	9.104783e-02	-5.092619e-02	0.0	8.359797e-02	-4.730008e-02	0.0	7.637356e-02	-4.377073e-02	0.0	6.943200e-02	-4.022305e-02	0.0	6.279704e-02	-3.660439e-02	0.0	5.636973e-02	-3.309899e-02	0.0	5.009043e-02	-2.981088e-02	0.0	4.401002e-02	-2.663650e-02	0.0	3.805747e-02	-2.370901e-02	0.0	3.227638e-02	-2.093181e-02	0.0	2.667280e-02	-1.828476e-02	0.0	2.126532e-02	-1.571872e-02	0.0	1.612793e-02	-1.307254e-02	0.0	1.128197e-02	-1.032179e-02	0.0	6.731411e-03	-7.456688e-03	0.0	2.758281e-03	-4.121705e-03	0.0	
CELLS 198	594
2	102	103	2	103	104	2	104	105	2	105	106	2	106	107	2	107	108	2	108	109	2	109	110	2	110	111	2	111	112	2	112	113	2	113	114	2	114	115	2	115	116	2	116	117	2	117	118	2	118	119	2	119	120	2	120	121	2	121	122	2	122	123	2	123	124	2	124	125	2	125	126	2	126	127	2	127	128	2	128	129	2	129	130	2	130	131	2	131	132	2	132	133	2	133	134	2	134	135	2	135	136	2	136	137	2	137	138	2	138	139	2	139	140	2	140	141	2	141	142	2	142	143	2	143	144	2	144	145	2	145	146	2	146	147	2	147	148	2	148	149	2	149	150	2	150	151	2	151	152	2	152	153	2	153	154	2	154	155	2	155	156	2	156	157	2	157	158	2	158	159	2	159	160	2	160	161	2	161	162	2	162	163	2	163	164	2	164	165	2	165	166	2	166	167	2	167	168	2	168	169	2	169	170	2	170	171	2	171	172	2	172	173	2	173	174	2	174	175	2	175	176	2	176	177	2	177	178	2	43	44	2	44	45	2	45	46	2	46	47	2	47	48	2	48	49	2	49	50	2	50	51	2	51	52	2	52	53	2	53	54	2	54	55	2	55	56	2	56	57	2	57	58	2	58	59	2	59	60	2	60	61	2	61	62	2	62	63	2	63	64	2	64	65	2	65	66	2	66	67	2	67	68	2	68	69	2	69	70	2	70	71	2	71	72	2	72	73	2	73	74	2	74	75	2	75	76	2	76	77	2	77	78	2	78	79	2	79	80	2	80	81	2	81	82	2	82	83	2	83	84	2	84	85	2	85	86	2	86	87	2	87	88	2	88	89	2	89	90	2	90	91	2	91	92	2	92	93	2	93	94	2	94	95	2	95	96	2	96	97	2	97	98	2	98	99	2	99	100	2	100	101	2	101	102	2	0	1	2	1	2	2	2	3	2	3	4	2	4	5	2	5	6	2	6	7	2	7	8	2	8	9	2	9	10	2	10	11	2	11	12	2	12	13	2	13	14	2	14	15	2	15	16	2	16	17	2	17	18	2	18	19	2	19	20	2	20	21	2	21	22	2	22	23	2	23	24	2	24	25	2	25	26	2	26	27	2	27	28	2	28	29	2	29	30	2	30	31	2	31	32	2	32	33	2	33	34	2	34	35	2	35	36	2	36	37	2	37	38	2	38	39	2	39	40	2	40	41	2	41	42	2	42	43	2	178	179	2	179	180	2	180	181	2	181	182	2	182	183	2	183	184	2	184	185	2	185	186	2	186	187	2	187	188	2	188	189	2	189	190	2	190	191	2	191	192	2	192	193	2	193	194	2	194	195	2	195	196	2	196	197	2	197	0	
CELL_TYPES 198
3	3	3	3	3	3	3	3	3	3	3	3	3	3	3	3	3	3	3	3	3	3	3	3	3	3	3	3	3	3	3	3	3	3	3	3	3	3	3	3	3	3	3	3	3	3	3	3	3	3	3	3	3	3	3	3	3	3	3	3	3	3	3	3	3	3	3	3	3	3	3	3	3	3	3	3	3	3	3	3	3	3	3	3	3	3	3	3	3	3	3	3	3	3	3	3	3	3	3	3	3	3	3	3	3	3	3	3	3	3	3	3	3	3	3	3	3	3	3	3	3	3	3	3	3	3	3	3	3	3	3	3	3	3	3	3	3	3	3	3	3	3	3	3	3	3	3	3	3	3	3	3	3	3	3	3	3	3	3	3	3	3	3	3	3	3	3	3	3	3	3	3	3	3	3	3	3	3	3	3	3	3	3	3	3	3	3	3	3	3	3	3	3	3	3	3	3	3	
POINT_DATA 198

SCALARS Density double 1
LOOKUP_TABLE default
1.503847e+00	1.099753e+00	1.077907e+00	1.003534e+00	9.692933e-01	9.453672e-01	9.520474e-01	9.456093e-01	9.372871e-01	9.081361e-01	8.662068e-01	8.059909e-01	7.987170e-01	9.010137e-01	1.119626e+00	1.230206e+00	1.273078e+00	1.287920e+00	1.291019e+00	1.281832e+00	1.245532e+00	1.209774e+00	1.168557e+00	1.095347e+00	1.034079e+00	9.822706e-01	8.820663e-01	8.071243e-01	7.381856e-01	6.608209e-01	6.268006e-01	6.023749e-01	5.821487e-01	5.972740e-01	6.241833e-01	6.405467e-01	7.082805e-01	7.760745e-01	8.116049e-01	8.626410e-01	8.991708e-01	9.291498e-01	9.525817e-01	9.489115e-01	9.288387e-01	9.138945e-01	8.778666e-01	8.480637e-01	8.381843e-01	8.278053e-01	8.293265e-01	8.319228e-01	8.335088e-01	8.395043e-01	8.453031e-01	8.517879e-01	8.455693e-01	8.410084e-01	8.272983e-01	7.996827e-01	7.883856e-01	7.394830e-01	6.949271e-01	6.781662e-01	7.128752e-01	9.057872e-01	1.155582e+00	1.195135e+00	1.209026e+00	1.223812e+00	1.237874e+00	1.255060e+00	1.262561e+00	1.263823e+00	1.269243e+00	1.267195e+00	1.267343e+00	1.265653e+00	1.263771e+00	1.264340e+00	1.264516e+00	1.266145e+00	1.268496e+00	1.270616e+00	1.273539e+00	1.276288e+00	1.279315e+00	1.283365e+00	1.286548e+00	1.291007e+00	1.295086e+00	1.299786e+00	1.305037e+00	1.310396e+00	1.316484e+00	1.323264e+00	1.331721e+00	1.343041e+00	1.354840e+00	1.352264e+00	1.441032e+00	1.418313e+00	1.417483e+00	1.419832e+00	1.419044e+00	1.419433e+00	1.419413e+00	1.420532e+00	1.420086e+00	1.420291e+00	1.420444e+00	1.417784e+00	1.418150e+00	1.416052e+00	1.414852e+00	1.414242e+00	1.412893e+00	1.413326e+00	1.414493e+00	1.418346e+00	1.420827e+00	1.430708e+00	1.436118e+00	1.440611e+00	1.446778e+00	1.441149e+00	1.443996e+00	1.431882e+00	1.413180e+00	1.397640e+00	1.369093e+00	1.336489e+00	1.309186e+00	1.267025e+00	1.225014e+00	1.203424e+00	1.145801e+00	1.133673e+00	1.156890e+00	1.159747e+00	1.185268e+00	1.206396e+00	1.224313e+00	1.248208e+00	1.262437e+00	1.266371e+00	1.269655e+00	1.267485e+00	1.257918e+00	1.251103e+00	1.245203e+00	1.230910e+00	1.229986e+00	1.234007e+00	1.236283e+00	1.252392e+00	1.267055e+00	1.280303e+00	1.298348e+00	1.310912e+00	1.315895e+00	1.330044e+00	1.329133e+00	1.320884e+00	1.315576e+00	1.299695e+00	1.284152e+00	1.267124e+00	1.240320e+00	1.215491e+00	1.189573e+00	1.146422e+00	1.118376e+00	1.077769e+00	1.018941e+00	9.849599e-01	9.519195e-01	9.929438e-01	1.052380e+00	1.092331e+00	1.175705e+00	1.215995e+00	1.269660e+00	1.341021e+00	1.373984e+00	1.415620e+00	1.453281e+00	1.478901e+00	1.501045e+00	1.519472e+00	1.532606e+00	1.546282e+00	1.556734e+00	1.571154e+00	1.590784e+00	1.611449e+00	1.615146e+00	1.696345e+00	
VECTORS Momentum double
2.003364e+01	2.417172e+02	0.0	1.741574e+02	1.977997e+02	0.0	2.103416e+02	1.864454e+02	0.0	2.424672e+02	1.581795e+02	0.0	2.601451e+02	1.404210e+02	0.0	2.709384e+02	1.218637e+02	0.0	2.779556e+02	1.127242e+02	0.0	2.829495e+02	1.025874e+02	0.0	2.885140e+02	9.597345e+01	0.0	2.915522e+02	8.655485e+01	0.0	2.949128e+02	7.627785e+01	0.0	2.927185e+02	5.989349e+01	0.0	2.916933e+02	4.667574e+01	0.0	2.850982e+02	2.902976e+01	0.0	2.713567e+02	1.957780e+01	0.0	2.568550e+02	2.026630e+01	0.0	2.461620e+02	2.911457e+01	0.0	2.396563e+02	4.062497e+01	0.0	2.364502e+02	5.490164e+01	0.0	2.425508e+02	7.156587e+01	0.0	2.519103e+02	8.094390e+01	0.0	2.623358e+02	8.794318e+01	0.0	2.756301e+02	9.573388e+01	0.0	2.865726e+02	9.086816e+01	0.0	2.941230e+02	8.322449e+01	0.0	3.011773e+02	7.912971e+01	0.0	3.001464e+02	5.819285e+01	0.0	2.959081e+02	4.167231e+01	0.0	2.909554e+02	2.621634e+01	0.0	2.753577e+02	5.437937e+00	0.0	2.682372e+02	-2.684280e+00	0.0	2.634589e+02	-9.956689e+00	0.0	2.569388e+02	-1.602972e+01	0.0	2.617973e+02	-1.422418e+01	0.0	2.700430e+02	-1.025284e+01	0.0	2.722216e+02	-7.992968e+00	0.0	2.882671e+02	4.288760e+00	0.0	3.017511e+02	1.654420e+01	0.0	3.048067e+02	2.211354e+01	0.0	3.116454e+02	3.108293e+01	0.0	3.143528e+02	3.463206e+01	0.0	3.151895e+02	3.634921e+01	0.0	3.168794e+02	3.815028e+01	0.0	3.180916e+02	3.536034e+01	0.0	3.164406e+02	2.952540e+01	0.0	3.167263e+02	2.671381e+01	0.0	3.140354e+02	1.917280e+01	0.0	3.107698e+02	1.196989e+01	0.0	3.104538e+02	8.920717e+00	0.0	3.090299e+02	4.406707e+00	0.0	3.097153e+02	2.275548e+00	0.0	3.103882e+02	4.074509e-01	0.0	3.105316e+02	-1.395778e+00	0.0	3.116154e+02	-1.999462e+00	0.0	3.118294e+02	-2.833433e+00	0.0	3.135007e+02	-3.546324e+00	0.0	3.120214e+02	-7.488855e+00	0.0	3.115677e+02	-1.094067e+01	0.0	3.104197e+02	-1.586819e+01	0.0	3.044189e+02	-2.378170e+01	0.0	3.045995e+02	-2.771844e+01	0.0	2.935768e+02	-3.764384e+01	0.0	2.841314e+02	-4.650253e+01	0.0	2.786463e+02	-5.081760e+01	0.0	2.776199e+02	-5.997845e+01	0.0	2.781508e+02	-6.552219e+01	0.0	2.766812e+02	-6.569755e+01	0.0	2.712999e+02	-7.043436e+01	0.0	2.674800e+02	-6.935388e+01	0.0	2.632450e+02	-6.722699e+01	0.0	2.580098e+02	-6.543114e+01	0.0	2.549440e+02	-5.995348e+01	0.0	2.539220e+02	-5.491421e+01	0.0	2.526158e+02	-5.186722e+01	0.0	2.530199e+02	-4.781536e+01	0.0	2.532267e+02	-4.572286e+01	0.0	2.537211e+02	-4.356916e+01	0.0	2.544646e+02	-4.239279e+01	0.0	2.546551e+02	-4.225871e+01	0.0	2.547431e+02	-4.207579e+01	0.0	2.544268e+02	-4.237522e+01	0.0	2.539852e+02	-4.271775e+01	0.0	2.533341e+02	-4.283570e+01	0.0	2.524180e+02	-4.313072e+01	0.0	2.513597e+02	-4.325334e+01	0.0	2.502461e+02	-4.351943e+01	0.0	2.488098e+02	-4.384849e+01	0.0	2.475247e+02	-4.392964e+01	0.0	2.459118e+02	-4.429152e+01	0.0	2.442497e+02	-4.440068e+01	0.0	2.424379e+02	-4.467094e+01	0.0	2.403211e+02	-4.488799e+01	0.0	2.381352e+02	-4.495237e+01	0.0	2.356858e+02	-4.505445e+01	0.0	2.328827e+02	-4.506018e+01	0.0	2.294836e+02	-4.505774e+01	0.0	2.254059e+02	-4.477933e+01	0.0	2.199565e+02	-4.438955e+01	0.0	2.095334e+02	-4.340837e+01	0.0	2.063548e+02	-1.499171e+01	0.0	2.717858e+02	-1.252021e+01	0.0	2.660711e+02	-8.646235e+00	0.0	2.660426e+02	-5.906509e+00	0.0	2.675375e+02	-4.329067e+00	0.0	2.668289e+02	-2.236501e+00	0.0	2.665749e+02	-3.968792e-01	0.0	2.664669e+02	1.472653e+00	0.0	2.663303e+02	3.061520e+00	0.0	2.661352e+02	5.193803e+00	0.0	2.662274e+02	6.948750e+00	0.0	2.661887e+02	8.774661e+00	0.0	2.665192e+02	1.104938e+01	0.0	2.672397e+02	1.207681e+01	0.0	2.673521e+02	1.382513e+01	0.0	2.679658e+02	1.487076e+01	0.0	2.682023e+02	1.566236e+01	0.0	2.682612e+02	1.653523e+01	0.0	2.683169e+02	1.670286e+01	0.0	2.677137e+02	1.689075e+01	0.0	2.664137e+02	1.699443e+01	0.0	2.643738e+02	1.805260e+01	0.0	2.617942e+02	1.876783e+01	0.0	2.579428e+02	2.286746e+01	0.0	2.553508e+02	2.790267e+01	0.0	2.531670e+02	3.366816e+01	0.0	2.518303e+02	4.257320e+01	0.0	2.527481e+02	4.890933e+01	0.0	2.528909e+02	5.953230e+01	0.0	2.584476e+02	6.875528e+01	0.0	2.651731e+02	7.420195e+01	0.0	2.717357e+02	8.088437e+01	0.0	2.816107e+02	8.397616e+01	0.0	2.912941e+02	8.279116e+01	0.0	2.988765e+02	8.201553e+01	0.0	3.080092e+02	7.673022e+01	0.0	3.163536e+02	6.594632e+01	0.0	3.174971e+02	6.145675e+01	0.0	3.268242e+02	4.627403e+01	0.0	3.294863e+02	3.166659e+01	0.0	3.259450e+02	2.686232e+01	0.0	3.266210e+02	1.756015e+01	0.0	3.233814e+02	1.320524e+01	0.0	3.204319e+02	1.086097e+01	0.0	3.181125e+02	8.421088e+00	0.0	3.144751e+02	1.006205e+01	0.0	3.129061e+02	1.296401e+01	0.0	3.130885e+02	1.444437e+01	0.0	3.129486e+02	1.622989e+01	0.0	3.140058e+02	1.799593e+01	0.0	3.160527e+02	1.706955e+01	0.0	3.171459e+02	1.554662e+01	0.0	3.179511e+02	1.442580e+01	0.0	3.199680e+02	9.210824e+00	0.0	3.194066e+02	4.803396e+00	0.0	3.179762e+02	1.936872e+00	0.0	3.168302e+02	-2.929483e+00	0.0	3.134859e+02	-4.720712e+00	0.0	3.104876e+02	-5.199334e+00	0.0	3.075580e+02	-5.559735e+00	0.0	3.038161e+02	-2.643673e+00	0.0	3.014091e+02	1.381001e+00	0.0	3.000946e+02	3.661313e+00	0.0	2.979538e+02	1.086776e+01	0.0	2.991225e+02	1.678700e+01	0.0	3.012814e+02	1.998936e+01	0.0	3.030957e+02	2.483086e+01	0.0	3.069005e+02	2.673292e+01	0.0	3.106346e+02	2.783307e+01	0.0	3.142384e+02	2.901946e+01	0.0	3.190780e+02	2.718776e+01	0.0	3.224779e+02	2.409868e+01	0.0	3.245222e+02	2.214206e+01	0.0	3.302196e+02	1.314670e+01	0.0	3.301713e+02	4.780163e+00	0.0	3.293152e+02	-3.707391e+00	0.0	3.298546e+02	-1.732801e+01	0.0	3.249683e+02	-2.510710e+01	0.0	3.298758e+02	-4.881211e+01	0.0	3.272823e+02	-6.899761e+01	0.0	3.197432e+02	-8.166146e+01	0.0	3.141214e+02	-1.050540e+02	0.0	3.020170e+02	-1.112147e+02	0.0	2.892022e+02	-1.233738e+02	0.0	2.718550e+02	-1.330545e+02	0.0	2.551360e+02	-1.270605e+02	0.0	2.406489e+02	-1.272283e+02	0.0	2.248861e+02	-1.228338e+02	0.0	2.124839e+02	-1.135360e+02	0.0	2.022549e+02	-1.057746e+02	0.0	1.927177e+02	-9.766086e+01	0.0	1.840399e+02	-8.935792e+01	0.0	1.745720e+02	-8.318062e+01	0.0	1.640194e+02	-7.745952e+01	0.0	1.480669e+02	-7.304270e+01	0.0	1.238736e+02	-6.707793e+01	0.0	9.157280e+01	-5.400065e+01	0.0	4.497969e+01	-2.822984e+01	0.0	-4.849594e+01	5.004991e+01	0.0	
SCALARS Energy double 1
LOOKUP_TABLE default
3.317135e+05	2.475153e+05	2.442263e+05	2.295578e+05	2.230818e+05	2.183499e+05	2.199612e+05	2.187504e+05	2.173516e+05	2.114890e+05	2.031496e+05	1.906105e+05	1.888180e+05	2.084152e+05	2.522470e+05	2.744921e+05	2.829752e+05	2.858530e+05	2.864912e+05	2.851062e+05	2.781367e+05	2.713923e+05	2.638221e+05	2.493252e+05	2.371588e+05	2.271186e+05	2.064243e+05	1.908388e+05	1.765992e+05	1.597037e+05	1.523287e+05	1.471161e+05	1.425086e+05	1.459666e+05	1.520748e+05	1.554507e+05	1.703623e+05	1.851112e+05	1.924445e+05	2.033168e+05	2.108851e+05	2.169734e+05	2.218544e+05	2.212026e+05	2.169635e+05	2.139803e+05	2.064828e+05	2.002044e+05	1.982096e+05	1.960024e+05	1.963726e+05	1.969549e+05	1.972829e+05	1.985801e+05	1.997475e+05	2.012048e+05	1.998285e+05	1.988914e+05	1.960913e+05	1.900756e+05	1.879211e+05	1.772886e+05	1.677428e+05	1.639673e+05	1.707605e+05	2.093088e+05	2.605975e+05	2.685687e+05	2.712121e+05	2.740134e+05	2.766227e+05	2.799805e+05	2.814364e+05	2.815908e+05	2.827117e+05	2.822693e+05	2.823072e+05	2.819819e+05	2.815946e+05	2.817180e+05	2.817396e+05	2.820612e+05	2.825210e+05	2.829192e+05	2.834776e+05	2.839981e+05	2.845606e+05	2.853461e+05	2.859342e+05	2.867881e+05	2.875566e+05	2.884415e+05	2.894399e+05	2.904502e+05	2.915991e+05	2.928684e+05	2.944631e+05	2.966084e+05	2.986394e+05	2.977751e+05	3.198415e+05	3.147143e+05	3.145330e+05	3.151092e+05	3.149027e+05	3.149711e+05	3.149613e+05	3.151917e+05	3.150884e+05	3.151390e+05	3.151722e+05	3.146310e+05	3.147498e+05	3.143161e+05	3.140981e+05	3.139843e+05	3.137047e+05	3.138000e+05	3.140149e+05	3.147613e+05	3.151815e+05	3.171426e+05	3.181078e+05	3.189548e+05	3.201897e+05	3.189946e+05	3.197024e+05	3.172529e+05	3.136933e+05	3.108430e+05	3.052898e+05	2.990625e+05	2.939178e+05	2.855979e+05	2.774073e+05	2.733717e+05	2.615182e+05	2.595787e+05	2.644133e+05	2.646789e+05	2.699331e+05	2.740238e+05	2.774997e+05	2.822770e+05	2.849751e+05	2.856901e+05	2.863910e+05	2.859356e+05	2.840272e+05	2.827541e+05	2.816024e+05	2.786927e+05	2.786362e+05	2.794208e+05	2.797851e+05	2.830456e+05	2.858569e+05	2.884069e+05	2.919718e+05	2.943448e+05	2.952286e+05	2.981083e+05	2.977911e+05	2.961550e+05	2.951967e+05	2.920180e+05	2.890394e+05	2.857555e+05	2.804469e+05	2.756448e+05	2.705297e+05	2.617982e+05	2.564828e+05	2.481782e+05	2.361747e+05	2.294233e+05	2.223768e+05	2.313291e+05	2.434064e+05	2.511263e+05	2.682945e+05	2.758705e+05	2.864624e+05	3.005735e+05	3.064095e+05	3.144699e+05	3.216139e+05	3.263218e+05	3.304754e+05	3.339022e+05	3.362632e+05	3.387823e+05	3.406137e+05	3.431998e+05	3.467604e+05	3.504617e+05	3.505108e+05	3.682794e+05	
SCALARS Pressure double 1
LOOKUP_TABLE default
1.248617e+05	8.637502e+04	8.303147e+04	7.511991e+04	7.120030e+04	6.866817e+04	6.908498e+04	6.834116e+04	6.721324e+04	6.422544e+04	5.983497e+04	5.409224e+04	5.367628e+04	6.513691e+04	8.767694e+04	9.900430e+04	1.035373e+05	1.051659e+05	1.054684e+05	1.040642e+05	1.000128e+05	9.590101e+04	9.095754e+04	8.322736e+04	7.679242e+04	7.110352e+04	6.137532e+04	5.420802e+04	4.751749e+04	4.092475e+04	3.797095e+04	3.576786e+04	3.423452e+04	3.536867e+04	3.743027e+04	3.902239e+04	4.467505e+04	5.050875e+04	5.396264e+04	5.858516e+04	6.210752e+04	6.512100e+04	6.735399e+04	6.689154e+04	6.503642e+04	6.348251e+04	6.004169e+04	5.727187e+04	5.626716e+04	5.532332e+04	5.541491e+04	5.562090e+04	5.577439e+04	5.629741e+04	5.689055e+04	5.740215e+04	5.689047e+04	5.644283e+04	5.508045e+04	5.271189e+04	5.143660e+04	4.722201e+04	4.324045e+04	4.192719e+04	4.567184e+04	6.569256e+04	9.024283e+04	9.428008e+04	9.585392e+04	9.754182e+04	9.920197e+04	1.010619e+05	1.018833e+05	1.021119e+05	1.026367e+05	1.024572e+05	1.024644e+05	1.022766e+05	1.020924e+05	1.021419e+05	1.021734e+05	1.023465e+05	1.026003e+05	1.028459e+05	1.031750e+05	1.034891e+05	1.038456e+05	1.042896e+05	1.046680e+05	1.051677e+05	1.056377e+05	1.061798e+05	1.067756e+05	1.073922e+05	1.080919e+05	1.088810e+05	1.098537e+05	1.111452e+05	1.126965e+05	1.127789e+05	1.176628e+05	1.158924e+05	1.158217e+05	1.159587e+05	1.159258e+05	1.159757e+05	1.159794e+05	1.160887e+05	1.160564e+05	1.160682e+05	1.160814e+05	1.158150e+05	1.158075e+05	1.156042e+05	1.154577e+05	1.153865e+05	1.152564e+05	1.152927e+05	1.154319e+05	1.158555e+05	1.161883e+05	1.172271e+05	1.179044e+05	1.184215e+05	1.190590e+05	1.185452e+05	1.187018e+05	1.174733e+05	1.153551e+05	1.134871e+05	1.103735e+05	1.067021e+05	1.035574e+05	9.907707e+04	9.451294e+04	9.199345e+04	8.635256e+04	8.460982e+04	8.682418e+04	8.742586e+04	8.991999e+04	9.224377e+04	9.420769e+04	9.668492e+04	9.830675e+04	9.878637e+04	9.908241e+04	9.887893e+04	9.788277e+04	9.708689e+04	9.644712e+04	9.501755e+04	9.479343e+04	9.522972e+04	9.555652e+04	9.718652e+04	9.882716e+04	1.002992e+05	1.022128e+05	1.036544e+05	1.042834e+05	1.056994e+05	1.057401e+05	1.048717e+05	1.042186e+05	1.025756e+05	1.008352e+05	9.894956e+04	9.612033e+04	9.338407e+04	9.063033e+04	8.626102e+04	8.306164e+04	7.903764e+04	7.318066e+04	6.961526e+04	6.663059e+04	7.013345e+04	7.610135e+04	8.051071e+04	8.865521e+04	9.331147e+04	9.901244e+04	1.065669e+05	1.107385e+05	1.153192e+05	1.196092e+05	1.226797e+05	1.252490e+05	1.274169e+05	1.290433e+05	1.306762e+05	1.320184e+05	1.338100e+05	1.362093e+05	1.387820e+05	1.398551e+05	1.467391e+05	
SCALARS Temperature double 1
LOOKUP_TABLE default
2.892383e+02	2.736045e+02	2.683439e+02	2.607675e+02	2.558922e+02	2.530377e+02	2.527874e+02	2.517682e+02	2.498116e+02	2.463693e+02	2.406378e+02	2.337950e+02	2.341099e+02	2.518408e+02	2.727989e+02	2.803539e+02	2.833169e+02	2.844566e+02	2.845902e+02	2.828137e+02	2.797248e+02	2.761526e+02	2.711559e+02	2.646945e+02	2.586993e+02	2.521682e+02	2.423946e+02	2.339664e+02	2.242427e+02	2.157409e+02	2.110340e+02	2.068504e+02	2.048616e+02	2.062887e+02	2.089013e+02	2.122235e+02	2.197304e+02	2.267219e+02	2.316215e+02	2.365854e+02	2.406203e+02	2.441550e+02	2.463153e+02	2.455703e+02	2.439196e+02	2.419850e+02	2.382620e+02	2.352574e+02	2.338545e+02	2.328147e+02	2.327724e+02	2.329085e+02	2.331068e+02	2.336124e+02	2.344542e+02	2.347616e+02	2.343800e+02	2.337969e+02	2.319347e+02	2.296261e+02	2.272814e+02	2.224573e+02	2.167611e+02	2.153724e+02	2.231852e+02	2.526506e+02	2.720459e+02	2.748105e+02	2.761879e+02	2.776557e+02	2.791734e+02	2.805131e+02	2.811129e+02	2.814625e+02	2.817008e+02	2.816627e+02	2.816494e+02	2.815086e+02	2.814203e+02	2.814298e+02	2.814778e+02	2.815917e+02	2.817670e+02	2.819701e+02	2.822231e+02	2.824726e+02	2.827750e+02	2.830879e+02	2.834119e+02	2.837817e+02	2.841520e+02	2.845774e+02	2.850228e+02	2.854965e+02	2.860275e+02	2.866394e+02	2.873637e+02	2.882917e+02	2.897696e+02	2.905337e+02	2.844434e+02	2.846512e+02	2.846443e+02	2.845094e+02	2.845867e+02	2.846310e+02	2.846443e+02	2.846881e+02	2.846983e+02	2.846860e+02	2.846878e+02	2.845673e+02	2.844754e+02	2.843967e+02	2.842774e+02	2.842244e+02	2.841752e+02	2.841774e+02	2.842859e+02	2.845540e+02	2.848732e+02	2.854351e+02	2.860029e+02	2.863614e+02	2.866756e+02	2.865533e+02	2.863660e+02	2.858001e+02	2.843607e+02	2.828666e+02	2.808420e+02	2.781236e+02	2.755561e+02	2.724070e+02	2.687698e+02	2.662985e+02	2.625405e+02	2.599940e+02	2.614441e+02	2.626074e+02	2.642835e+02	2.663652e+02	2.680551e+02	2.698374e+02	2.712714e+02	2.717480e+02	2.718574e+02	2.717636e+02	2.710717e+02	2.703322e+02	2.698233e+02	2.689105e+02	2.684778e+02	2.688346e+02	2.692605e+02	2.703312e+02	2.717134e+02	2.729073e+02	2.742488e+02	2.754512e+02	2.760734e+02	2.768451e+02	2.771416e+02	2.765821e+02	2.759685e+02	2.749370e+02	2.735433e+02	2.720351e+02	2.699677e+02	2.676403e+02	2.654073e+02	2.621201e+02	2.587276e+02	2.554693e+02	2.501945e+02	2.462160e+02	2.438393e+02	2.460542e+02	2.519127e+02	2.567614e+02	2.626856e+02	2.673213e+02	2.716644e+02	2.768325e+02	2.807679e+02	2.837822e+02	2.867116e+02	2.889774e+02	2.906771e+02	2.921223e+02	2.933157e+02	2.944004e+02	2.954270e+02	2.966882e+02	2.982812e+02	3.000177e+02	3.016457e+02	3.013437e+02	
SCALARS Mach double 1
LOOKUP_TABLE default
4.730573e-01	7.226828e-01	7.940587e-01	8.911344e-01	9.510582e-01	9.854532e-01	9.884489e-01	1.000613e+00	1.023832e+00	1.064302e+00	1.130844e+00	1.209371e+00	1.205771e+00	9.997489e-01	7.338793e-01	6.239585e-01	5.770290e-01	5.582062e-01	5.559690e-01	5.851925e-01	6.335967e-01	6.865250e-01	7.563984e-01	8.415220e-01	9.167567e-01	9.958455e-01	1.110541e+00	1.207412e+00	1.318283e+00	1.415412e+00	1.469557e+00	1.518025e+00	1.541204e+00	1.524562e+00	1.494218e+00	1.455839e+00	1.369758e+00	1.290035e+00	1.234188e+00	1.177436e+00	1.131045e+00	1.090117e+00	1.064933e+00	1.073635e+00	1.092854e+00	1.115281e+00	1.158195e+00	1.192646e+00	1.208690e+00	1.220569e+00	1.221053e+00	1.219498e+00	1.217233e+00	1.211457e+00	1.201835e+00	1.198319e+00	1.202683e+00	1.209349e+00	1.230615e+00	1.256943e+00	1.283661e+00	1.338636e+00	1.403720e+00	1.419640e+00	1.330337e+00	9.900844e-01	7.442509e-01	7.057178e-01	6.860147e-01	6.646034e-01	6.419607e-01	6.215029e-01	6.121874e-01	6.067108e-01	6.029574e-01	6.035579e-01	6.037673e-01	6.059860e-01	6.073741e-01	6.072243e-01	6.064698e-01	6.046773e-01	6.019107e-01	5.986941e-01	5.946684e-01	5.906788e-01	5.858174e-01	5.807554e-01	5.754768e-01	5.694089e-01	5.632845e-01	5.561829e-01	5.486749e-01	5.405992e-01	5.314345e-01	5.207175e-01	5.077998e-01	4.908529e-01	4.628233e-01	4.477639e-01	5.584274e-01	5.549443e-01	5.550604e-01	5.573235e-01	5.560274e-01	5.552836e-01	5.550614e-01	5.543254e-01	5.541524e-01	5.543592e-01	5.543298e-01	5.563524e-01	5.578925e-01	5.592077e-01	5.611981e-01	5.620803e-01	5.628985e-01	5.628619e-01	5.610558e-01	5.565764e-01	5.512045e-01	5.416513e-01	5.318625e-01	5.256080e-01	5.200773e-01	5.222356e-01	5.255271e-01	5.353749e-01	5.598091e-01	5.843388e-01	6.164076e-01	6.576799e-01	6.950966e-01	7.392884e-01	7.884204e-01	8.208387e-01	8.689021e-01	9.007537e-01	8.826803e-01	8.680577e-01	8.467796e-01	8.199727e-01	7.978690e-01	7.741871e-01	7.548280e-01	7.483304e-01	7.468332e-01	7.481162e-01	7.575413e-01	7.675400e-01	7.743754e-01	7.865526e-01	7.922881e-01	7.875605e-01	7.818968e-01	7.675524e-01	7.488026e-01	7.323793e-01	7.136510e-01	6.965983e-01	6.876676e-01	6.764835e-01	6.721551e-01	6.803094e-01	6.891782e-01	7.039234e-01	7.235371e-01	7.443987e-01	7.724399e-01	8.033253e-01	8.323632e-01	8.741970e-01	9.164072e-01	9.561829e-01	1.019301e+00	1.066094e+00	1.093786e+00	1.067984e+00	9.988925e-01	9.404909e-01	8.670716e-01	8.075079e-01	7.494722e-01	6.766676e-01	6.175577e-01	5.694005e-01	5.194404e-01	4.780169e-01	4.448887e-01	4.149837e-01	3.888028e-01	3.635773e-01	3.381620e-01	3.043251e-01	2.557660e-01	1.899905e-01	9.443280e-02	1.180547e-01	
SCALARS Pressure_Coefficient double 1
LOOKUP_TABLE default