# vtk DataFile Version 3.0
vtk output
ASCII
DATASET UNSTRUCTURED_GRID
POINTS 1842 double
1.000000e+02	0.000000e+00	0.0	9.917900e+01	1.278772e+01	0.0	9.672949e+01	2.536546e+01	0.0	9.269168e+01	3.752670e+01	0.0	8.713187e+01	4.907176e+01	0.0	8.014136e+01	5.981105e+01	0.0	7.183494e+01	6.956826e+01	0.0	6.234898e+01	7.818315e+01	0.0	5.183926e+01	8.551428e+01	0.0	4.047833e+01	9.144126e+01	0.0	2.845276e+01	9.586679e+01	0.0	1.595999e+01	9.871818e+01	0.0	3.205158e+00	9.994862e+01	0.0	-9.602303e+00	9.953791e+01	0.0	-2.225209e+01	9.749279e+01	0.0	-3.453651e+01	9.384684e+01	0.0	-4.625383e+01	8.865993e+01	0.0	-5.721167e+01	8.201723e+01	0.0	-6.723009e+01	7.402780e+01	0.0	-7.614460e+01	6.482284e+01	0.0	-8.380881e+01	5.455349e+01	0.0	-9.009689e+01	4.338837e+01	0.0	-9.490557e+01	3.151082e+01	0.0	-9.815592e+01	1.911586e+01	0.0	-9.979454e+01	6.407022e+00	0.0	-9.979454e+01	-6.407022e+00	0.0	-9.815592e+01	-1.911586e+01	0.0	-9.490557e+01	-3.151082e+01	0.0	-9.009689e+01	-4.338837e+01	0.0	-8.380881e+01	-5.455349e+01	0.0	-7.614460e+01	-6.482284e+01	0.0	-6.723009e+01	-7.402780e+01	0.0	-5.721167e+01	-8.201723e+01	0.0	-4.625383e+01	-8.865993e+01	0.0	-3.453651e+01	-9.384684e+01	0.0	-2.225209e+01	-9.749279e+01	0.0	-9.602303e+00	-9.953791e+01	0.0	3.205158e+00	-9.994862e+01	0.0	1.595999e+01	-9.871818e+01	0.0	2.845276e+01	-9.586679e+01	0.0	4.047833e+01	-9.144126e+01	0.0	5.183926e+01	-8.551428e+01	0.0	6.234898e+01	-7.818315e+01	0.0	7.183494e+01	-6.956826e+01	0.0	8.014136e+01	-5.981105e+01	0.0	8.713187e+01	-4.907176e+01	0.0	9.269168e+01	-3.752670e+01	0.0	9.672949e+01	-2.536546e+01	0.0	9.917900e+01	-1.278772e+01	0.0	0.000000e+00	0.000000e+00	0.0	3.134853e-03	3.895214e-03	0.0	6.414108e-03	7.906645e-03	0.0	1.075799e-02	1.107659e-02	0.0	1.527671e-02	1.433533e-02	0.0	2.042537e-02	1.695002e-02	0.0	2.576374e-02	1.964370e-02	0.0	3.151974e-02	2.192191e-02	0.0	3.748882e-02	2.424088e-02	0.0	4.382556e-02	2.617176e-02	0.0	5.041562e-02	2.800817e-02	0.0	5.736131e-02	2.935520e-02	0.0	6.459285e-02	3.028057e-02	0.0	7.212016e-02	3.073418e-02	0.0	7.988448e-02	3.040461e-02	0.0	8.788686e-02	2.987818e-02	0.0	9.612437e-02	2.922328e-02	0.0	1.046212e-01	2.887887e-02	0.0	1.133782e-01	2.882170e-02	0.0	1.223550e-01	2.937943e-02	0.0	1.315637e-01	3.032157e-02	0.0	1.409897e-01	3.153364e-02	0.0	1.506222e-01	3.309679e-02	0.0	1.605020e-01	3.470030e-02	0.0	1.706199e-01	3.639211e-02	0.0	1.809823e-01	3.812479e-02	0.0	1.916109e-01	3.973820e-02	0.0	2.025088e-01	4.119249e-02	0.0	2.136439e-01	4.267843e-02	0.0	2.250646e-01	4.371100e-02	0.0	2.367224e-01	4.469330e-02	0.0	2.486134e-01	4.555142e-02	0.0	2.607430e-01	4.610535e-02	0.0	2.730840e-01	4.666894e-02	0.0	2.856374e-01	4.697400e-02	0.0	2.983890e-01	4.720078e-02	0.0	3.113280e-01	4.738280e-02	0.0	3.244456e-01	4.740742e-02	0.0	3.377303e-01	4.743235e-02	0.0	3.511706e-01	4.753584e-02	0.0	3.647554e-01	4.767224e-02	0.0	3.784702e-01	4.790668e-02	0.0	3.922947e-01	4.852507e-02	0.0	4.062264e-01	4.914826e-02	0.0	4.202101e-01	5.034125e-02	0.0	4.342557e-01	5.178371e-02	0.0	4.483565e-01	5.331960e-02	0.0	4.624659e-01	5.522150e-02	0.0	4.766119e-01	5.712833e-02	0.0	4.908234e-01	5.866030e-02	0.0	5.050625e-01	6.001744e-02	0.0	5.193057e-01	6.107924e-02	0.0	5.335774e-01	6.082756e-02	0.0	5.478122e-01	6.057653e-02	0.0	5.618549e-01	5.883637e-02	0.0	5.757702e-01	5.644392e-02	0.0	5.895626e-01	5.386459e-02	0.0	6.030315e-01	5.024974e-02	0.0	6.163969e-01	4.666269e-02	0.0	6.296102e-01	4.297721e-02	0.0	6.426681e-01	3.922801e-02	0.0	6.555869e-01	3.551873e-02	0.0	6.685245e-01	3.250660e-02	0.0	6.813097e-01	2.957182e-02	0.0	6.939857e-01	2.701276e-02	0.0	7.066001e-01	2.513337e-02	0.0	7.190209e-01	2.328283e-02	0.0	7.313166e-01	2.213943e-02	0.0	7.434224e-01	2.119961e-02	0.0	7.553206e-01	2.049936e-02	0.0	7.670186e-01	2.034193e-02	0.0	7.784864e-01	2.018761e-02	0.0	7.897129e-01	2.055260e-02	0.0	8.006998e-01	2.096333e-02	0.0	8.114392e-01	2.147255e-02	0.0	8.219305e-01	2.203309e-02	0.0	8.321791e-01	2.245471e-02	0.0	8.421855e-01	2.268283e-02	0.0	8.519401e-01	2.279561e-02	0.0	8.614361e-01	2.232564e-02	0.0	8.706816e-01	2.186808e-02	0.0	8.796391e-01	2.095927e-02	0.0	8.883395e-01	1.996374e-02	0.0	8.967777e-01	1.887796e-02	0.0	9.049416e-01	1.759913e-02	0.0	9.128649e-01	1.635799e-02	0.0	9.205298e-01	1.503179e-02	0.0	9.279561e-01	1.372194e-02	0.0	9.351486e-01	1.243798e-02	0.0	9.421090e-01	1.116906e-02	0.0	9.488456e-01	9.940363e-03	0.0	9.553570e-01	8.722250e-03	0.0	9.616531e-01	7.544435e-03	0.0	9.677340e-01	6.385019e-03	0.0	9.736076e-01	5.261322e-03	0.0	9.792757e-01	4.157871e-03	0.0	9.847453e-01	3.085656e-03	0.0	9.900198e-01	2.038103e-03	0.0	9.951033e-01	1.010828e-03	0.0	1.000000e+00	0.000000e+00	0.0	9.950055e-01	2.338165e-04	0.0	9.898208e-01	4.363325e-04	0.0	9.844404e-01	5.869636e-04	0.0	9.788601e-01	6.921418e-04	0.0	9.730756e-01	7.724188e-04	0.0	9.670817e-01	7.937921e-04	0.0	9.608743e-01	7.916636e-04	0.0	9.544488e-01	7.231796e-04	0.0	9.478008e-01	6.376394e-04	0.0	9.409273e-01	4.553308e-04	0.0	9.338223e-01	2.668851e-04	0.0	9.264859e-01	-3.564556e-05	0.0	9.189112e-01	-3.711880e-04	0.0	9.110998e-01	-8.126059e-04	0.0	9.030520e-01	-1.419341e-03	0.0	8.947563e-01	-2.044772e-03	0.0	8.862511e-01	-3.092792e-03	0.0	8.774992e-01	-4.216305e-03	0.0	8.685431e-01	-5.664820e-03	0.0	8.593976e-01	-7.534699e-03	0.0	8.500086e-01	-9.488825e-03	0.0	8.405432e-01	-1.220910e-02	0.0	8.308312e-01	-1.500025e-02	0.0	8.209458e-01	-1.809877e-02	0.0	8.108463e-01	-2.136649e-02	0.0	8.004874e-01	-2.464945e-02	0.0	7.898618e-01	-2.791509e-02	0.0	7.789935e-01	-3.122519e-02	0.0	7.677483e-01	-3.408558e-02	0.0	7.562736e-01	-3.700430e-02	0.0	7.445029e-01	-3.966864e-02	0.0	7.324680e-01	-4.218896e-02	0.0	7.202137e-01	-4.472223e-02	0.0	7.077061e-01	-4.705751e-02	0.0	6.950003e-01	-4.942979e-02	0.0	6.820980e-01	-5.179751e-02	0.0	6.690108e-01	-5.416937e-02	0.0	6.557535e-01	-5.656804e-02	0.0	6.423223e-01	-5.890759e-02	0.0	6.287440e-01	-6.127275e-02	0.0	6.149921e-01	-6.341337e-02	0.0	6.010817e-01	-6.534326e-02	0.0	5.870593e-01	-6.726604e-02	0.0	5.728464e-01	-6.830924e-02	0.0	5.585512e-01	-6.935849e-02	0.0	5.441668e-01	-6.974876e-02	0.0	5.297124e-01	-6.960945e-02	0.0	5.152213e-01	-6.941715e-02	0.0	5.007201e-01	-6.875668e-02	0.0	4.862112e-01	-6.809586e-02	0.0	4.717010e-01	-6.774261e-02	0.0	4.572089e-01	-6.755657e-02	0.0	4.427655e-01	-6.765601e-02	0.0	4.284177e-01	-6.890236e-02	0.0	4.141378e-01	-7.014282e-02	0.0	4.000813e-01	-7.240712e-02	0.0	3.861702e-01	-7.501922e-02	0.0	3.723872e-01	-7.770678e-02	0.0	3.587870e-01	-8.067138e-02	0.0	3.453205e-01	-8.360682e-02	0.0	3.319140e-01	-8.606868e-02	0.0	3.186328e-01	-8.833125e-02	0.0	3.054860e-01	-9.025541e-02	0.0	2.923905e-01	-9.102025e-02	0.0	2.794872e-01	-9.177388e-02	0.0	2.667846e-01	-9.144452e-02	0.0	2.542917e-01	-9.072471e-02	0.0	2.420500e-01	-8.971306e-02	0.0	2.301410e-01	-8.774105e-02	0.0	2.184601e-01	-8.580680e-02	0.0	2.071758e-01	-8.315169e-02	0.0	1.961936e-01	-8.023923e-02	0.0	1.854766e-01	-7.729868e-02	0.0	1.751992e-01	-7.376794e-02	0.0	1.651601e-01	-7.031909e-02	0.0	1.554282e-01	-6.677026e-02	0.0	1.460085e-01	-6.311197e-02	0.0	1.368281e-01	-5.954658e-02	0.0	1.278978e-01	-5.604693e-02	0.0	1.192093e-01	-5.263437e-02	0.0	1.107485e-01	-4.934329e-02	0.0	1.024635e-01	-4.630729e-02	0.0	9.441631e-02	-4.335844e-02	0.0	8.657446e-02	-4.058179e-02	0.0	7.894327e-02	-3.795505e-02	0.0	7.154237e-02	-3.541473e-02	0.0	6.434883e-02	-3.301871e-02	0.0	5.738224e-02	-3.069828e-02	0.0	5.064785e-02	-2.842606e-02	0.0	4.413508e-02	-2.622098e-02	0.0	3.788388e-02	-2.395826e-02	0.0	3.185949e-02	-2.172264e-02	0.0	2.617065e-02	-1.924190e-02	0.0	2.074872e-02	-1.669799e-02	0.0	1.572990e-02	-1.382052e-02	0.0	1.108571e-02	-1.074058e-02	0.0	6.762204e-03	-7.536795e-03	0.0	2.978996e-03	-3.985739e-03	0.0	7.744227e-01	-1.808317e-01	0.0	8.381199e-01	-2.165873e-01	0.0	8.239727e-01	-1.628605e-01	0.0	8.715993e+01	1.793701e+01	0.0	7.524103e+01	-1.284845e+01	0.0	7.552809e+01	-2.511339e+01	0.0	8.653504e+01	-1.828309e+01	0.0	8.592902e+01	-5.084795e+00	0.0	3.533076e+01	2.312226e+01	0.0	4.613503e+01	2.797074e+01	0.0	3.798862e+01	3.654742e+01	0.0	8.091845e+01	3.592762e+01	0.0	6.812048e+01	3.516124e+01	0.0	7.536063e+01	2.415058e+01	0.0	6.854515e+01	-3.614867e+01	0.0	7.559458e+01	-4.381902e+01	0.0	8.112001e+01	-3.655611e+01	0.0	8.660361e+01	-2.849876e+01	0.0	5.664175e+01	3.113752e+01	0.0	5.802194e+01	4.054449e+01	0.0	4.962522e+01	3.589905e+01	0.0	5.551560e+01	-5.346584e+01	0.0	6.198162e+01	-6.009501e+01	0.0	6.557902e+01	-5.477054e+01	0.0	6.818526e+01	5.985827e+01	0.0	7.277390e+01	5.144643e+01	0.0	5.783529e+01	6.612186e+01	0.0	4.406254e+01	-6.334834e+01	0.0	4.481955e+01	-7.462106e+01	0.0	5.357779e+01	-7.213135e+01	0.0	6.635709e+01	-4.683835e+01	0.0	5.104225e+01	7.559453e+01	0.0	2.648912e+01	5.523250e+01	0.0	1.989432e+01	6.426032e+01	0.0	1.680743e+01	5.326397e+01	0.0	6.248590e+01	-6.736977e+01	0.0	2.844598e+01	7.466935e+01	0.0	4.014345e+01	7.894832e+01	0.0	3.024340e+01	8.540959e+01	0.0	3.635527e+01	-7.237339e+01	0.0	2.671470e+01	-7.792935e+01	0.0	3.828746e+01	-8.116053e+01	0.0	5.413674e+00	3.960024e+01	0.0	-2.279510e+00	5.000388e+01	0.0	-4.983243e+00	3.588243e+01	0.0	9.230915e+00	7.839173e+01	0.0	1.758174e+01	7.494069e+01	0.0	1.580766e+01	8.242458e+01	0.0	1.461802e+01	4.345793e+01	0.0	1.225601e+01	3.400958e+01	0.0	6.674615e+00	3.905533e+00	0.0	1.040010e+01	2.922088e+00	0.0	8.383976e+00	6.693879e+00	0.0	2.382039e+00	8.832903e-02	0.0	2.170366e+00	6.803850e-01	0.0	1.890630e+00	2.243088e-01	0.0	3.248318e+00	-7.683064e-01	0.0	2.452331e+00	-9.963330e-01	0.0	2.951992e+00	-1.789192e+00	0.0	1.421419e+00	5.636408e-01	0.0	1.678546e+00	4.684699e-01	0.0	1.681454e+00	8.131930e-01	0.0	6.458186e-01	1.540277e+00	0.0	5.475631e-01	9.842790e-01	0.0	9.939633e-01	1.066815e+00	0.0	1.041559e+00	1.371268e-01	0.0	1.027587e+00	8.274555e-02	0.0	1.065977e+00	9.431426e-02	0.0	1.020353e+00	2.353329e-02	0.0	1.017245e+00	3.750519e-02	0.0	1.008464e+00	2.549835e-02	0.0	1.006104e+00	1.169023e-02	0.0	1.003128e+00	1.712607e-02	0.0	1.000477e+00	1.047780e-02	0.0	1.003215e+00	1.899814e-03	0.0	9.988234e-01	4.720539e-03	0.0	9.838882e-01	7.511268e-03	0.0	8.907088e-01	1.420746e-01	0.0
[...]
POINT_DATA 1842

SCALARS Density double 1
LOOKUP_TABLE default
1.291572e+00	1.291666e+00	1.292071e+00	1.292236e+00	1.292178e+00	1.292140e+00	1.292131e+00	1.292108e+00	1.292079e+00	1.292055e+00	1.292035e+00	1.292031e+00	1.292040e+00	1.292073e+00	1.292117e+00	1.292163e+00	1.292200e+00	1.292230e+00	1.292253e+00	1.292268e+00	1.292279e+00	1.292287e+00	1.292292e+00	1.292298e+00	1.292302e+00	1.292308e+00	1.292313e+00	1.292321e+00	1.292330e+00	1.292341e+00	1.292357e+00	1.292376e+00	1.292401e+00	1.292430e+00	1.292465e+00	1.292501e+00	1.292539e+00	1.292563e+00	1.292562e+00	1.292546e+00	1.292514e+00	1.292476e+00	1.292435e+00	1.292395e+00	1.292356e+00	1.292326e+00	1.292356e+00	1.292288e+00	1.291932e+00	1.518894e+00	1.197008e+00	1.193188e+00	1.117157e+00	1.068661e+00	1.019805e+00	1.002204e+00	9.672920e-01	9.312170e-01	8.779791e-01	8.149000e-01	7.314722e-01	6.604074e-01	5.767152e-01	5.120064e-01	4.970834e-01	5.427767e-01	7.193012e-01	1.035164e+00	1.145817e+00	1.156969e+00	1.145171e+00	1.130215e+00	1.108787e+00	1.089753e+00	1.065433e+00	1.038957e+00	1.021919e+00	9.959863e-01	9.807878e-01	9.868698e-01	9.838588e-01	9.935394e-01	1.009310e+00	1.024307e+00	1.046212e+00	1.063029e+00	1.080931e+00	1.101723e+00	1.115532e+00	1.127636e+00	1.142251e+00	1.145208e+00	1.148561e+00	1.146777e+00	1.127488e+00	1.111974e+00	1.085380e+00	1.036716e+00	9.889858e-01	9.469801e-01	8.607496e-01	7.882160e-01	7.084119e-01	6.294326e-01	6.104754e-01	6.815627e-01	8.993534e-01	1.088818e+00	1.123711e+00	1.150477e+00	1.176255e+00	1.190105e+00	1.197611e+00	1.209857e+00	1.211664e+00	1.214434e+00	1.218025e+00	1.214787e+00	1.217673e+00	1.213360e+00	1.210334e+00	1.206289e+00	1.195924e+00	1.189001e+00	1.177567e+00	1.165017e+00	1.157219e+00	1.146135e+00	1.144577e+00	1.147437e+00	1.148333e+00	1.160084e+00	1.164028e+00	1.172488e+00	1.181345e+00	1.187561e+00	1.195376e+00	1.201040e+00	1.206812e+00	1.211593e+00	1.216542e+00	1.220905e+00	1.225634e+00	1.229733e+00	1.234228e+00	1.235935e+00	1.248294e+00	1.226784e+00	1.255815e+00	1.356740e+00	1.320781e+00	1.332922e+00	1.334182e+00	1.336889e+00	1.339535e+00	1.341504e+00	1.344254e+00	1.346054e+00	1.348619e+00	1.351173e+00	1.352877e+00	1.357551e+00	1.357283e+00	1.363122e+00	1.364489e+00	1.363885e+00	1.368289e+00	1.361921e+00	1.363935e+00	1.357869e+00	1.344805e+00	1.336453e+00	1.318542e+00	1.301526e+00	1.285565e+00	1.259929e+00	1.242810e+00	1.230853e+00	1.215376e+00	1.210262e+00	1.200910e+00	1.194945e+00	1.192345e+00	1.185646e+00	1.178605e+00	1.167932e+00	1.156544e+00	1.138642e+00	1.117614e+00	1.104050e+00	1.069822e+00	1.057595e+00	1.057417e+00	1.057266e+00	1.090994e+00	1.119185e+00	1.151902e+00	1.193090e+00	1.218165e+00	1.238678e+00	1.266240e+00	1.269835e+00	1.272387e+00	1.273241e+00	1.252121e+00	1.240607e+00	1.210118e+00	9.828623e-01	6.902758e-01	5.968796e-01	6.001467e-01	6.668244e-01	7.113879e-01	7.583022e-01	8.272901e-01	8.560985e-01	9.195699e-01	9.755488e-01	1.022964e+00	1.090514e+00	1.114282e+00	1.162169e+00	1.218877e+00	1.248481e+00	1.287211e+00	1.321298e+00	1.346260e+00	1.369488e+00	1.393533e+00	1.408370e+00	1.419707e+00	1.432385e+00	1.439578e+00	1.448394e+00	1.456129e+00	1.460978e+00	1.468502e+00	1.473186e+00	1.481524e+00	1.487486e+00	1.498085e+00	1.516892e+00	1.536071e+00	1.573263e+00	1.603006e+00	1.619684e+00	1.667227e+00	1.285876e+00	1.309889e+00	1.313196e+00	1.291953e+00	1.292122e+00	1.292288e+00	1.292171e+00	1.291844e+00	1.292068e+00	1.292127e+00	1.292006e+00	1.292158e+00	1.292172e+00	1.292116e+00	1.292331e+00	1.292324e+00	1.292306e+00	1.292291e+00	1.292122e+00	1.292081e+00	1.292092e+00	1.292395e+00	1.292394e+00	1.292371e+00	1.292118e+00	1.292121e+00	1.292090e+00	1.292465e+00	1.292481e+00	1.292446e+00	1.292340e+00	1.292073e+00	1.291942e+00	1.291931e+00	1.291858e+00	1.292410e+00	1.291996e+00	1.292040e+00	1.292023e+00	1.292511e+00	1.292551e+00	1.292514e+00	1.291621e+00	1.291809e+00	1.291643e+00	1.291968e+00	1.291965e+00	1.291986e+00	1.291782e+00	1.291656e+00	1.292014e+00	1.291084e+00	1.291839e+00	1.282503e+00	1.295618e+00	1.287172e+00	1.294489e+00	1.297839e+00	1.295756e+00	1.292334e+00	1.304045e+00	1.292100e+00	1.262923e+00	1.237704e+00	1.267259e+00	1.307943e+00	1.307986e+00	1.299252e+00	1.267813e+00	1.276557e+00	1.268969e+00	1.256327e+00	1.259157e+00	1.254028e+00	1.259153e+00	1.257287e+00	1.241205e+00	1.271964e+00	1.265709e+00	1.282674e+00	1.232562e+00	1.239825e+00	1.238617e+00	1.246477e+00	1.255411e+00	1.245112e+00	1.237382e+00	1.228423e+00	1.229166e+00	1.246123e+00	1.246869e+00	1.260806e+00	1.340646e+00	1.350047e+00	1.115113e+00	1.086449e+00	1.098837e+00	1.086986e+00	1.071988e+00	1.099416e+00	1.041027e+00	1.086049e+00	1.077710e+00	1.105685e+00	1.135718e+00	1.098738e+00	1.154663e+00	1.136254e+00	1.150168e+00	1.361303e+00	1.364171e+00	1.364604e+00	1.467761e+00	1.486685e+00	1.462144e+00	1.498005e+00	1.514282e+00	1.504805e+00	1.110181e+00	1.054812e+00	1.131822e+00	8.358770e-01	8.632995e-01	1.110268e+00	1.103579e+00	7.582746e-01	7.968055e-01	7.160415e-01	1.122966e+00	1.166541e+00	1.160911e+00	1.143741e+00	1.152832e+00	9.709151e-01	9.545701e-01	1.012422e+00	1.145092e+00	1.154591e+00	1.141618e+00	1.155313e+00	1.142751e+00	6.443262e-01	1.107525e+00	1.117291e+00	1.128452e+00	1.359919e+00	1.355819e+00	1.356950e+00	1.187137e+00	1.233071e+00	1.181157e+00	1.247013e+00	1.235797e+00	1.128854e+00	1.171449e+00	1.107725e+00	1.117777e+00	1.246054e+00	1.243201e+00	1.251553e+00	8.424396e-01	7.484432e-01	7.917902e-01	1.071224e+00	1.248228e+00	1.261407e+00	1.258908e+00	1.253144e+00	1.263567e+00	7.881978e-01	7.274502e-01	7.889990e-01	1.257017e+00	1.038454e+00	6.945095e-01	7.161203e-01	6.362514e-01	1.270340e+00	7.328793e-01	1.272994e+00	1.257770e+00	1.261051e+00	1.252177e+00	9.522912e-01	9.605030e-01	9.029146e-01	1.226391e+00	1.196453e+00	1.214171e+00	1.235007e+00	1.257994e+00	1.240428e+00	1.252954e+00	1.232227e+00	1.230257e+00	1.222506e+00	1.215776e+00	1.218765e+00	1.225535e+00	1.199179e+00	1.189679e+00	1.197644e+00	1.266669e+00	1.269875e+00	1.271119e+00	1.133554e+00	1.127977e+00	1.186712e+00	1.193323e+00	1.178589e+00	1.250202e+00	1.241270e+00	1.233291e+00	1.224137e+00	1.162304e+00	1.158688e+00	1.166129e+00	1.218968e+00	1.223074e+00	1.230660e+00	1.250594e+00	1.238376e+00	1.201772e+00	1.204740e+00	1.180293e+00	1.180804e+00	1.170643e+00	1.258710e+00	1.260851e+00	1.241790e+00	1.291591e+00	1.291268e+00	1.290988e+00	1.204698e+00	1.192752e+00	1.201770e+00	1.195147e+00	1.156864e+00	1.132351e+00	1.132733e+00	1.139330e+00	1.122819e+00	1.088370e+00	1.005433e+00	1.146668e+00	1.144668e+00	1.161753e+00	9.950123e-01	1.001131e+00	1.013222e+00	1.479084e+00	1.500551e+00	1.521625e+00	1.214244e+00	1.212528e+00	1.287069e+00	1.291400e+00	1.253887e+00	1.195929e+00	1.262422e+00	1.223027e+00	1.219074e+00	1.291851e+00	1.291766e+00	1.126132e+00	1.013378e+00	9.589246e-01	7.334883e-01	1.292109e+00	1.292061e+00	1.191294e+00	1.162577e+00	1.150262e+00	1.087363e+00	1.082426e+00	1.186484e+00	1.083945e+00	1.173700e+00	1.131409e+00	1.112157e+00	1.097984e+00	1.056507e+00	1.033883e+00	1.035317e+00	1.015252e+00	1.036260e+00	5.402908e-01	6.067631e-01	5.715645e-01	1.064155e+00	1.037454e+00	1.052424e+00	7.474708e-01	9.908658e-01	1.292047e+00	1.252497e+00	1.273670e+00	1.277217e+00	1.292154e+00	1.290256e+00	1.289481e+00	1.289306e+00	1.008907e+00	1.091243e+00	1.083627e+00	1.292192e+00	7.730439e-01	7.126193e-01	8.355491e-01	1.290530e+00	1.291145e+00	1.290946e+00	1.292250e+00	1.291929e+00	1.292114e+00	1.291937e+00	1.292204e+00	1.291768e+00	1.292477e+00	1.292333e+00	1.292263e+00	1.292260e+00	1.292246e+00	9.354223e-01	9.208220e-01	9.992697e-01	9.636327e-01	1.292299e+00	1.292289e+00	1.292305e+00	1.292273e+00	1.292280e+00	1.292312e+00	1.292324e+00	1.292327e+00	1.292340e+00	1.292379e+00	1.292360e+00	1.292392e+00	1.292354e+00	1.292342e+00	1.292393e+00	1.292444e+00	1.292403e+00	1.292345e+00	1.292298e+00	1.292429e+00	1.293077e+00	1.292903e+00	1.293108e+00	1.292425e+00	1.352878e+00	1.244648e+00	1.303282e+00	1.295552e+00	1.295654e+00	1.294607e+00	1.292474e+00	1.297923e+00	1.302095e+00	1.299526e+00	1.292743e+00	1.292779e+00	1.292560e+00	1.292497e+00	1.292532e+00	1.316021e+00	1.328399e+00	1.316988e+00	1.322647e+00	1.306555e+00	1.269928e+00	1.277567e+00	1.248734e+00	1.345451e+00	1.345151e+00	1.335702e+00	1.512640e+00	1.529530e+00	1.472568e+00	1.467661e+00	1.472216e+00	1.496771e+00	1.504277e+00	1.434546e+00	1.416731e+00	1.394449e+00	1.281604e+00	1.299466e+00	1.332090e+00	1.595141e+00	1.598633e+00	1.625918e+00	1.430543e+00	1.414671e+00	1.420719e+00	1.364707e+00	1.347742e+00	1.368425e+00	1.444232e+00	1.642145e+00	1.680795e+00	1.423837e+00	1.430961e+00	1.404661e+00	1.413905e+00	1.424759e+00	1.292610e+00	1.292614e+00	1.292640e+00	1.330795e+00	1.333691e+00	1.357780e+00	1.373456e+00	1.351288e+00	1.361211e+00	1.297385e+00	1.292577e+00	1.358415e+00	1.377929e+00	1.296281e+00	1.299613e+00	1.293640e+00	1.206608e+00	1.218079e+00	1.177620e+00	1.264163e+00	1.279823e+00	1.353241e+00	1.367118e+00	1.366778e+00	1.365294e+00	1.365995e+00	1.364096e+00	1.197390e+00	1.157842e+00	1.215507e+00	1.292779e+00	1.292680e+00	1.292722e+00	1.185820e+00	1.135732e+00	1.154395e+00	1.044391e+00	9.756850e-01	9.915013e-01	1.013128e+00	1.070923e+00	1.292539e+00	1.292563e+00	1.208316e+00	1.169417e+00	1.178721e+00	1.151716e+00	1.139583e+00	1.244041e+00	1.260722e+00	1.087212e+00	1.089361e+00	1.073275e+00	1.079043e+00	1.102252e+00	1.192039e+00	1.171451e+00	1.162082e+00	1.255902e+00	1.226950e+00	1.186089e+00	1.163861e+00	1.179671e+00	1.171914e+00	1.157530e+00	1.142556e+00	1.202518e+00	1.191806e+00	1.202226e+00	1.200902e+00	1.194551e+00	1.242244e+00	1.226159e+00	1.224444e+00	1.353914e+00	1.358649e+00	1.358619e+00	1.353746e+00	1.359816e+00	1.358862e+00	1.364104e+00	1.257134e+00	1.258405e+00	1.240809e+00	1.365005e+00	1.364822e+00	1.364374e+00	1.362768e+00	1.364766e+00	1.292307e+00	9.836119e-01	1.273608e+00	1.268608e+00	1.292743e+00	1.292682e+00	1.293016e+00	1.348175e+00	1.349576e+00	1.350918e+00	1.292563e+00	1.292644e+00	1.292874e+00	1.292555e+00	1.292550e+00	1.292655e+00	1.292202e+00	1.292181e+00	1.292128e+00	1.292242e+00	1.292526e+00	1.292471e+00	1.292041e+00	1.292019e+00	1.292010e+00	1.292004e+00	1.291767e+00	1.291695e+00	1.291917e+00	1.292379e+00	1.292344e+00	1.291935e+00	1.291973e+00	1.292135e+00	1.292671e+00	1.292815e+00	1.292227e+00	1.292234e+00	1.292131e+00	1.292277e+00	1.292694e+00	1.292887e+00	1.294064e+00	1.294390e+00	1.293566e+00	1.292012e+00	1.291852e+00	1.291770e+00	1.292065e+00	1.291114e+00	1.288123e+00	1.289558e+00	1.289922e+00	1.292345e+00	1.292444e+00	1.292373e+00	1.292324e+00	1.292334e+00	1.292345e+00	1.292307e+00	1.292315e+00	1.292293e+00	1.292274e+00	1.292252e+00	1.292024e+00	1.292002e+00	1.292583e+00	1.292588e+00	1.292591e+00	1.292144e+00	1.292102e+00	1.292085e+00	1.292036e+00	1.292059e+00	1.291839e+00	1.291868e+00	1.291844e+00	1.292243e+00	1.292327e+00	1.292392e+00	1.292462e+00	1.292442e+00	1.292615e+00	1.292602e+00	1.292424e+00	1.292409e+00	1.292370e+00	1.292106e+00	1.292173e+00	1.292008e+00	1.291973e+00	1.292335e+00	1.292506e+00	1.086502e+00	1.075094e+00	1.034751e+00	1.160484e+00	1.203427e+00	1.112370e+00	1.291602e+00	1.293386e+00	1.292817e+00	1.292927e+00	1.292916e+00	1.291954e+00	1.291845e+00	1.292721e+00	1.292683e+00	1.292642e+00	1.292696e+00	1.292671e+00	1.291911e+00	1.292011e+00	1.292238e+00	1.292390e+00	1.292416e+00	1.292482e+00	1.292434e+00	1.292073e+00	1.292560e+00	1.292406e+00	1.299299e+00	1.300120e+00	1.304447e+00	1.291929e+00	1.292931e+00	1.292922e+00	1.292621e+00	1.293707e+00	1.293314e+00	1.293562e+00	1.292279e+00	1.292319e+00	1.291902e+00	1.291925e+00	1.292292e+00	1.292350e+00	1.292371e+00	1.292370e+00	1.292216e+00	1.292151e+00	1.292596e+00	1.291953e+00	1.291987e+00	1.292621e+00	1.292648e+00	1.292577e+00	1.291998e+00	1.292127e+00	1.291880e+00	1.292611e+00	1.292319e+00	1.292015e+00	1.292342e+00	1.292418e+00	1.292318e+00	1.291498e+00	1.292443e+00	1.292622e+00	1.292535e+00	1.291925e+00	1.292036e+00	1.292543e+00	1.292019e+00	1.291962e+00	1.292453e+00	1.292542e+00	1.292496e+00	1.293371e+00	1.292139e+00	1.291908e+00	1.292480e+00	1.292439e+00	1.227457e+00	1.226548e+00	1.210015e+00	1.292086e+00	1.292011e+00	1.292094e+00	1.291281e+00	1.291760e+00	1.291811e+00	1.291955e+00	1.291988e+00	1.292506e+00	1.292106e+00	1.292505e+00	1.292586e+00	1.292523e+00	1.292054e+00	1.292002e+00	1.291991e+00	1.292547e+00	1.292347e+00	1.292217e+00	1.292402e+00	1.292484e+00	1.292367e+00	1.292409e+00	1.292379e+00	1.293349e+00	1.292439e+00	1.293690e+00	1.293129e+00	1.292408e+00	1.292253e+00	1.289842e+00	1.292711e+00	1.287962e+00	1.291938e+00	1.291866e+00	1.292176e+00	1.292962e+00	9.664244e-01	9.303810e-01	8.872987e-01	1.291139e+00	1.380308e+00	1.395062e+00	1.365774e+00	1.289826e+00	1.291076e+00	1.294198e+00	1.292645e+00	1.295093e+00	1.295441e+00	1.297245e+00	1.204013e+00	1.266711e+00	1.213494e+00	1.289709e+00	1.294110e+00	1.293122e+00	1.293690e+00	1.293804e+00	1.295010e+00	1.291229e+00	1.290816e+00	1.294209e+00	1.293252e+00	1.343599e+00	1.346147e+00	1.292705e+00	1.290271e+00	1.287507e+00	1.290394e+00	1.297042e+00	1.292990e+00	1.294085e+00	1.293400e+00	1.294660e+00	1.296327e+00	1.294855e+00	1.296088e+00	1.295236e+00	1.287695e+00	1.289746e+00	1.220477e+00	1.226756e+00	1.238679e+00	1.330737e+00	1.318214e+00	1.312910e+00	1.292074e+00	1.290113e+00	1.282222e+00	1.284990e+00	1.286897e+00	1.285223e+00	1.290047e+00	1.287669e+00	1.294359e+00	1.288602e+00	1.297607e+00	1.295504e+00	1.290299e+00	1.291954e+00	1.292674e+00	1.287799e+00	1.284576e+00	1.280682e+00	1.277374e+00	1.298842e+00	1.269669e+00	1.282519e+00	1.294432e+00	1.284915e+00	1.293451e+00	1.294257e+00	1.345039e+00	1.352209e+00	1.353627e+00	1.307036e+00	1.313402e+00	1.295762e+00	1.294128e+00	1.457252e+00	1.480770e+00	1.497245e+00	1.294999e+00	1.295052e+00	1.295987e+00	1.296709e+00	1.296347e+00	1.293483e+00	1.287067e+00	1.291093e+00	1.292235e+00	1.293776e+00	1.298556e+00	1.291742e+00	1.082014e+00	1.059214e+00	1.023236e+00	1.293904e+00	1.281747e+00	1.318407e+00	1.314661e+00	1.179183e+00	1.188786e+00	1.194714e+00	1.296751e+00	1.285705e+00	1.282343e+00	1.306948e+00	1.296177e+00	1.311254e+00	1.304286e+00	1.309052e+00	1.017027e+00	1.279732e+00	1.276345e+00	1.246307e+00	1.228096e+00	1.285795e+00	1.291363e+00	1.287548e+00	1.304085e+00	1.308944e+00	1.300804e+00	1.301525e+00	1.205547e+00	1.176770e+00	1.211377e+00	1.212075e+00	1.221047e+00	1.290624e+00	1.287517e+00	6.092516e-01	1.159074e+00	9.620346e-01	1.014592e+00	1.277977e+00	1.285956e+00	1.287398e+00	1.278240e+00	1.291007e+00	1.321836e+00	1.311872e+00	1.341572e+00	1.338943e+00	1.251958e+00	1.303216e+00	1.387229e+00	1.395721e+00	1.303854e+00	1.293030e+00	1.308822e+00	1.294258e+00	1.277016e+00	1.262611e+00	1.325175e+00	1.354974e+00	1.346872e+00	1.318284e+00	1.302234e+00	1.299113e+00	1.224720e+00	1.296377e+00	1.272423e+00	1.287786e+00	1.292947e+00	1.264993e+00	1.415480e+00	1.392350e+00	1.292771e+00	1.269767e+00	1.250864e+00	1.231456e+00	1.289055e+00	1.088589e+00	1.112497e+00	1.108679e+00	1.345307e+00	1.318242e+00	1.318841e+00	1.308751e+00	1.306515e+00	1.324162e+00	1.338938e+00	1.298058e+00	1.332512e+00	1.315062e+00	1.315703e+00	1.295367e+00	1.213049e+00	1.194423e+00	1.307138e+00	1.203950e+00	1.198909e+00	1.243063e+00	1.237051e+00	1.161003e+00	1.163046e+00	1.157389e+00	1.169638e+00	1.349424e+00	1.280594e+00	1.302827e+00	1.318483e+00	1.341683e+00	1.199180e+00	1.157032e+00	1.269469e+00	1.128053e+00	6.434229e-01	7.313007e-01	1.155922e+00	1.168766e+00	1.161774e+00	1.380582e+00	1.349101e+00	1.580816e+00	1.330282e+00	1.325195e+00	1.227246e+00	1.225780e+00	1.218572e+00	1.328632e+00	1.145652e+00	1.161950e+00	1.144593e+00	1.359110e+00	1.346871e+00	1.327316e+00	1.327681e+00	1.290747e+00	1.316379e+00	1.335012e+00	1.309670e+00	1.288023e+00	1.322327e+00	1.420974e+00	1.303310e+00	1.355937e+00	1.373740e+00	1.385952e+00	1.402203e+00	1.328191e+00	1.372473e+00	1.338431e+00	1.273808e+00	1.266694e+00	1.147491e+00	1.138534e+00	1.034035e+00	1.315542e+00	1.254920e+00	1.178428e+00	1.165669e+00	1.235828e+00	1.298583e+00	1.308234e+00	1.246929e+00	1.178270e+00	1.313969e+00	1.328112e+00	1.337058e+00	1.328084e+00	1.286701e+00	1.543209e+00	1.542429e+00	1.236310e+00	1.115059e+00	1.101376e+00	1.280713e+00	1.330098e+00	1.332818e+00	1.322345e+00	1.333642e+00	1.333143e+00	1.156354e+00	1.151617e+00	1.128276e+00	1.282141e+00	1.214165e+00	1.224543e+00	1.357573e+00	1.162514e+00	8.725273e-01	8.987392e-01	9.451749e-01	1.226902e+00	1.321620e+00	1.413451e+00	1.029268e+00	1.281439e+00	1.256040e+00	1.299056e+00	1.251528e+00	1.265110e+00	1.206977e+00	1.209762e+00	1.182860e+00	1.255077e+00	1.179121e+00	1.157796e+00	1.145165e+00	1.129812e+00	1.244297e+00	1.271265e+00	1.256775e+00	1.316728e+00	1.158633e+00	1.153735e+00	1.166362e+00	1.324671e+00	1.588037e+00	1.571083e+00	1.542209e+00	1.146009e+00	1.160273e+00	1.239161e+00	1.313729e+00	1.266498e+00	1.266849e+00	1.331559e+00	1.253748e+00	1.354372e+00	1.346897e+00	1.358600e+00	1.121999e+00	1.210947e+00	1.292235e+00	1.466324e+00	1.359266e+00	1.115765e+00	1.091165e+00	1.326965e+00	1.404206e+00	1.348505e+00	1.219121e+00	1.145086e+00	1.215449e+00	1.192946e+00	1.337866e+00	1.339062e+00	1.347987e+00	1.356815e+00	1.452730e+00	1.434670e+00	1.307933e+00	1.307089e+00	1.016642e+00	1.021613e+00	8.586405e-01	1.010393e+00	1.053146e+00	9.074778e-01	8.805782e-01	9.736175e-01	1.334716e+00	1.336500e+00	1.216570e+00	1.198375e+00	1.221069e+00	6.564197e-01	1.479443e+00	1.295413e+00	1.325486e+00	9.862504e-01	1.142218e+00	1.148701e+00	1.345552e+00	8.346998e-01	1.244915e+00	1.237018e+00	1.244323e+00	1.246405e+00	1.295649e+00	1.289385e+00	1.302647e+00	1.299600e+00	1.242129e+00	1.263950e+00	1.254353e+00	1.438623e+00	1.447384e+00	1.261333e+00	1.238569e+00	1.274897e+00	9.379692e-01	1.017264e+00	1.277356e+00	1.182964e+00	1.175927e+00	1.264033e+00	1.255676e+00	1.414791e+00	1.291603e+00	1.261513e+00	1.035558e+00	1.264445e+00	1.333286e+00	1.331379e+00	1.139737e+00	1.360524e+00	1.436996e+00	1.449320e+00	1.408528e+00	1.392253e+00	1.192657e+00	1.137450e+00	1.119053e+00	1.208140e+00	1.263272e+00	1.262900e+00	1.261604e+00	1.263838e+00	1.155588e+00	1.109685e+00	1.027835e+00	1.116034e+00	1.146017e+00	1.318068e+00	1.317451e+00	1.320259e+00	1.072810e+00	8.621091e-01	8.350534e-01	9.437695e-01	1.103107e+00	1.182139e+00	1.162209e+00	1.174530e+00	1.183350e+00	1.200853e+00	1.020261e+00	1.269261e+00	1.181409e+00	1.143869e+00	1.148943e+00	1.202896e+00	1.289631e+00	1.250252e+00	1.284296e+00	8.273315e-01	8.802402e-01	1.162196e+00	1.153039e+00	1.122565e+00	1.289730e+00	1.341067e+00	1.107645e+00	1.415436e+00	1.354740e+00	1.345797e+00	1.347008e+00	1.329502e+00	1.249741e+00	8.494565e-01	8.094979e-01	1.299679e+00	1.285675e+00	1.307986e+00	1.344259e+00	1.332974e+00	1.094699e+00	1.111095e+00	1.064823e+00	1.435450e+00	1.202581e+00	1.272387e+00	1.278969e+00	1.294458e+00	1.280679e+00	1.225219e+00	1.236819e+00	1.225598e+00	1.213381e+00	1.212618e+00	1.267605e+00	1.230532e+00	1.185942e+00	1.010875e+00	1.176781e+00	1.220221e+00	1.076315e+00	1.044068e+00	1.278726e+00	1.276197e+00	1.285097e+00	6.867410e-01	1.051831e+00	7.991672e-01	1.280776e+00	1.300299e+00	1.257892e+00	1.192704e+00	1.296817e+00	1.358235e+00	1.137245e+00	1.466252e+00	1.504526e+00	7.765810e-01	1.252600e+00	1.252278e+00	1.481273e+00	1.462414e+00	1.450723e+00	1.360944e+00	1.360539e+00	1.358383e+00	1.179733e+00	1.152643e+00	1.159375e+00	1.134519e+00	1.017289e+00	1.086248e+00	1.000498e+00	9.105862e-01	9.383679e-01	1.327064e+00	1.360291e+00	1.356809e+00	1.364193e+00	1.170641e+00	1.172292e+00	1.162955e+00	1.194639e+00	1.107642e+00	1.267715e+00	1.272220e+00	1.264508e+00	1.245863e+00	1.260628e+00	1.248888e+00	1.058353e+00	8.018897e-01	7.712617e-01	8.675783e-01	6.372622e-01	6.152015e-01	1.212007e+00	1.244792e+00	1.180584e+00	1.454572e+00	1.424848e+00	1.335847e+00	1.322339e+00	1.337677e+00	1.212761e+00	1.251927e+00	1.067889e+00	1.077550e+00	1.021384e+00	1.010020e+00	9.442667e-01	8.493316e-01	8.535172e-01	1.429204e+00	1.444464e+00	1.451896e+00	1.458132e+00	1.456397e+00	1.269509e+00	1.348106e+00	1.330962e+00	1.275128e+00	1.284223e+00	1.262476e+00	1.229482e+00	1.244214e+00	1.141524e+00	1.250202e+00	1.244892e+00	1.124936e+00	8.649023e-01	1.362390e+00	1.365477e+00	1.474092