# vtk DataFile Version 3.0
vtk output
ASCII
DATASET UNSTRUCTURED_GRID
POINTS 198 double
0.000000e+00	0.000000e+00	0.0	3.134853e-03	3.895214e-03	0.0	6.414108e-03	7.906645e-03	0.0	1.075799e-02	1.107659e-02	0.0	1.527671e-02	1.433533e-02	0.0	2.042537e-02	1.695002e-02	0.0	2.576374e-02	1.964370e-02	0.0	3.151974e-02	2.192191e-02	0.0	3.748882e-02	2.424088e-02	0.0	4.382556e-02	2.617176e-02	0.0	5.041562e-02	2.800817e-02	0.0	5.736131e-02	2.935520e-02	0.0	6.459285e-02	3.028057e-02	0.0	7.212016e-02	3.073418e-02	0.0	7.988448e-02	3.040461e-02	0.0	8.788686e-02	2.987818e-02	0.0	9.612437e-02	2.922328e-02	0.0	1.046212e-01	2.887887e-02	0.0	1.133782e-01	2.882170e-02	0.0	1.223550e-01	2.937943e-02	0.0	1.315637e-01	3.032157e-02	0.0	1.409897e-01	3.153364e-02	0.0	1.506222e-01	3.309679e-02	0.0	1.605020e-01	3.470030e-02	0.0	1.706199e-01	3.639211e-02	0.0	1.809823e-01	3.812479e-02	0.0	1.916109e-01	3.973820e-02	0.0	2.025088e-01	4.119249e-02	0.0	2.136439e-01	4.267843e-02	0.0	2.250646e-01	4.371100e-02	0.0	2.367224e-01	4.469330e-02	0.0	2.486134e-01	4.555142e-02	0.0	2.607430e-01	4.610535e-02	0.0	2.730840e-01	4.666894e-02	0.0	2.856374e-01	4.697400e-02	0.0	2.983890e-01	4.720078e-02	0.0	3.113280e-01	4.738280e-02	0.0	3.244456e-01	4.740742e-02	0.0	3.377303e-01	4.743235e-02	0.0	3.511706e-01	4.753584e-02	0.0	3.647554e-01	4.767224e-02	0.0	3.784702e-01	4.790668e-02	0.0	3.922947e-01	4.852507e-02	0.0	4.062264e-01	4.914826e-02	0.0	4.202101e-01	5.034125e-02	0.0	4.342557e-01	5.178371e-02	0.0	4.483565e-01	5.331960e-02	0.0	4.624659e-01	5.522150e-02	0.0	4.766119e-01	5.712833e-02	0.0	4.908234e-01	5.866030e-02	0.0	5.050625e-01	6.001744e-02	0.0	5.193057e-01	6.107924e-02	0.0	5.335774e-01	6.082756e-02	0.0	5.478122e-01	6.057653e-02	0.0	5.618549e-01	5.883637e-02	0.0	5.757702e-01	5.644392e-02	0.0	5.895626e-01	5.386459e-02	0.0	6.030315e-01	5.024974e-02	0.0	6.163969e-01	4.666269e-02	0.0	6.296102e-01	4.297721e-02	0.0	6.426681e-01	3.922801e-02	0.0	6.555869e-01	3.551873e-02	0.0	6.685245e-01	3.250660e-02	0.0	6.813097e-01	2.957182e-02	0.0	6.939857e-01	2.701276e-02	0.0	7.066001e-01	2.513337e-02	0.0	7.190209e-01	2.328283e-02	0.0	7.313166e-01	2.213943e-02	0.0	7.434224e-01	2.119961e-02	0.0	7.553206e-01	2.049936e-02	0.0	7.670186e-01	2.034193e-02	0.0	7.784864e-01	2.018761e-02	0.0	7.897129e-01	2.055260e-02	0.0	8.006998e-01	2.096333e-02	0.0	8.114392e-01	2.147255e-02	0.0	8.219305e-01	2.203309e-02	0.0	8.321791e-01	2.245471e-02	0.0	8.421855e-01	2.268283e-02	0.0	8.519401e-01	2.279561e-02	0.0	8.614361e-01	2.232564e-02	0.0	8.706816e-01	2.186808e-02	0.0	8.796391e-01	2.095927e-02	0.0	8.883395e-01	1.996374e-02	0.0	8.967777e-01	1.887796e-02	0.0	9.049416e-01	1.759913e-02	0.0	9.128649e-01	1.635799e-02	0.0	9.205298e-01	1.503179e-02	0.0	9.279561e-01	1.372194e-02	0.0	9.351486e-01	1.243798e-02	0.0	9.421090e-01	1.116906e-02	0.0	9.488456e-01	9.940363e-03	0.0	9.553570e-01	8.722250e-03	0.0	9.616531e-01	7.544435e-03	0.0	9.677340e-01	6.385019e-03	0.0	9.736076e-01	5.261322e-03	0.0	9.792757e-01	4.157871e-03	0.0	9.847453e-01	3.085656e-03	0.0	9.900198e-01	2.038103e-03	0.0	9.951033e-01	1.010828e-03	0.0	1.000000e+00	0.000000e+00	0.0	9.950055e-01	2.338165e-04	0.0	9.898208e-01	4.363325e-04	0.0	9.844404e-01	5.869636e-04	0.0	9.788601e-01	6.921418e-04	0.0	9.730756e-01	7.724188e-04	0.0	9.670817e-01	7.937921e-04	0.0	9.608743e-01	7.916636e-04	0.0	9.544488e-01	7.231796e-04	0.0	9.478008e-01	6.376394e-04	0.0	9.409273e-01	4.553308e-04	0.0	9.338223e-01	2.668851e-04	0.0	9.264859e-01	-3.564556e-05	0.0	9.189112e-01	-3.711880e-04	0.0	9.110998e-01	-8.126059e-04	0.0	9.030520e-01	-1.419341e-03	0.0	8.947563e-01	-2.044772e-03	0.0	8.862511e-01	-3.092792e-03	0.0	8.774992e-01	-4.216305e-03	0.0	8.685431e-01	-5.664820e-03	0.0	8.593976e-01	-7.534699e-03	0.0	8.500086e-01	-9.488825e-03	0.0	8.405432e-01	-1.220910e-02	0.0	8.308312e-01	-1.500025e-02	0.0	8.209458e-01	-1.809877e-02	0.0	8.108463e-01	-2.136649e-02	0.0	8.004874e-01	-2.464945e-02	0.0	7.898618e-01	-2.791509e-02	0.0	7.789935e-01	-3.122519e-02	0.0	7.677483e-01	-3.408558e-02	0.0	7.562736e-01	-3.700430e-02	0.0	7.445029e-01	-3.966864e-02	0.0	7.324680e-01	-4.218896e-02	0.0	7.202137e-01	-4.472223e-02	0.0	7.077061e-01	-4.705751e-02	0.0	6.950003e-01	-4.942979e-02	0.0	6.820980e-01	-5.179751e-02	0.0	6.690108e-01	-5.416937e-02	0.0	6.557535e-01	-5.656804e-02	0.0	6.423223e-01	-5.890759e-02	0.0	6.287440e-01	-6.127275e-02	0.0	6.149921e-01	-6.341337e-02	0.0	6.010817e-01	-6.534326e-02	0.0	5.870593e-01	-6.726604e-02	0.0	5.728464e-01	-6.830924e-02	0.0	5.585512e-01	-6.935849e-02	0.0	5.441668e-01	-6.974876e-02	0.0	5.297124e-01	-6.960945e-02	0.0	5.152213e-01	-6.941715e-02	0.0	5.007201e-01	-6.875668e-02	0.0	4.862112e-01	-6.809586e-02	0.0	4.717010e-01	-6.774261e-02	0.0	4.572089e-01	-6.755657e-02	0.0	4.427655e-01	-6.765601e-02	0.0	4.284177e-01	-6.890236e-02	0.0	4.141378e-01	-7.014282e-02	0.0	4.000813e-01	-7.240712e-02	0.0	3.861702e-01	-7.501922e-02	0.0	3.723872e-01	-7.770678e-02	0.0	3.587870e-01	-8.067138e-02	0.0	3.453205e-01	-8.360682e-02	0.0	3.319140e-01	-8.606868e-02	0.0	3.186328e-01	-8.833125e-02	0.0	3.054860e-01	-9.025541e-02	0.0	2.923905e-01	-9.102025e-02	0.0	2.794872e-01	-9.177388e-02	0.0	2.667846e-01	-9.144452e-02	0.0	2.542917e-01	-9.072471e-02	0.0	2.420500e-01	-8.971306e-02	0.0	2.301410e-01	-8.774105e-02	0.0	2.184601e-01	-8.580680e-02	0.0	2.071758e-01	-8.315169e-02	0.0	1.961936e-01	-8.023923e-02	0.0	1.854766e-01	-7.729868e-02	0.0	1.751992e-01	-7.376794e-02	0.0	1.651601e-01	-7.031909e-02	0.0	1.554282e-01	-6.677026e-02	0.0	1.460085e-01	-6.311197e-02	0.0	1.368281e-01	-5.954658e-02	0.0	1.278978e-01	-5.604693e-02	0.0	1.192093e-01	-5.263437e-02	0.0	1.107485e-01	-4.934329e-02	0.0	1.024635e-01	-4.630729e-02	0.0	9.441631e-02	-4.335844e-02	0.0	8.657446e-02	-4.058179e-02	0.0	7.894327e-02	-3.795505e-02	0.0	7.154237e-02	-3.541473e-02	0.0	6.434883e-02	-3.301871e-02	0.0	5.738224e-02	-3.069828e-02	0.0	5.064785e-02	-2.842606e-02	0.0	4.413508e-02	-2.622098e-02	0.0	3.788388e-02	-2.395826e-02	0.0	3.185949e-02	-2.172264e-02	0.0	2.617065e-02	-1.924190e-02	0.0	2.074872e-02	-1.669799e-02	0.0	1.572990e-02	-1.382052e-02	0.0	1.108571e-02	-1.074058e-02	0.0	6.762204e-03	-7.536795e-03	0.0	2.978996e-03	-3.985739e-03	0.0	
CELLS 198	594
2	4	5	2	5	6	2	6	7	2	7	8	2	8	9	2	9	10	2	10	11	2	11	12	2	12	13	2	13	14	2	14	15	2	15	16	2	16	17	2	17	18	2	18	19	2	19	20	2	20	21	2	21	22	2	22	23	2	23	24	2	24	25	2	25	26	2	26	27	2	27	28	2	28	29	2	29	30	2	30	31	2	31	32	2	32	33	2	33	34	2	34	35	2	35	36	2	36	37	2	37	38	2	38	39	2	39	40	2	40	41	2	41	42	2	42	43	2	43	44	2	44	45	2	45	46	2	46	47	2	47	48	2	48	49	2	49	50	2	50	51	2	51	52	2	52	53	2	53	54	2	54	55	2	55	56	2	56	57	2	57	58	2	58	59	2	59	60	2	60	61	2	61	62	2	62	63	2	63	64	2	64	65	2	65	66	2	66	67	2	67	68	2	68	69	2	69	70	2	70	71	2	71	72	2	72	73	2	73	74	2	74	75	2	75	76	2	0	1	2	1	2	2	2	3	2	3	4	2	141	142	2	142	143	2	143	144	2	144	145	2	145	146	2	146	147	2	147	148	2	148	149	2	149	150	2	150	151	2	151	152	2	152	153	2	153	154	2	154	155	2	155	156	2	156	157	2	157	158	2	158	159	2	159	160	2	160	161	2	161	162	2	162	163	2	163	164	2	164	165	2	165	166	2	166	167	2	167	168	2	168	169	2	169	170	2	170	171	2	171	172	2	172	173	2	173	174	2	174	175	2	175	176	2	176	177	2	177	178	2	178	179	2	179	180	2	180	181	2	181	182	2	182	183	2	183	184	2	184	185	2	185	186	2	186	187	2	187	188	2	188	189	2	189	190	2	190	191	2	191	192	2	192	193	2	193	194	2	194	195	2	195	196	2	196	197	2	197	0	2	76	77	2	77	78	2	78	79	2	79	80	2	80	81	2	81	82	2	82	83	2	83	84	2	84	85	2	85	86	2	86	87	2	87	88	2	88	89	2	89	90	2	90	91	2	91	92	2	92	93	2	93	94	2	94	95	2	95	96	2	96	97	2	97	98	2	98	99	2	99	100	2	100	101	2	101	102	2	102	103	2	103	104	2	104	105	2	105	106	2	106	107	2	107	108	2	108	109	2	109	110	2	110	111	2	111	112	2	112	113	2	113	114	2	114	115	2	115	116	2	116	117	2	117	118	2	118	119	2	119	120	2	120	121	2	121	122	2	122	123	2	123	124	2	124	125	2	125	126	2	126	127	2	127	128	2	128	129	2	129	130	2	130	131	2	131	132	2	132	133	2	133	134	2	134	135	2	135	136	2	136	137	2	137	138	2	138	139	2	139	140	2	140	141	
CELL_TYPES 198
3	3	3	3	3	3	3	3	3	3	3	3	3	3	3	3	3	3	3	3	3	3	3	3	3	3	3	3	3	3	3	3	3	3	3	3	3	3	3	3	3	3	3	3	3	3	3	3	3	3	3	3	3	3	3	3	3	3	3	3	3	3	3	3	3	3	3	3	3	3	3	3	3	3	3	3	3	3	3	3	3	3	3	3	3	3	3	3	3	3	3	3	3	3	3	3	3	3	3	3	3	3	3	3	3	3	3	3	3	3	3	3	3	3	3	3	3	3	3	3	3	3	3	3	3	3	3	3	3	3	3	3	3	3	3	3	3	3	3	3	3	3	3	3	3	3	3	3	3	3	3	3	3	3	3	3	3	3	3	3	3	3	3	3	3	3	3	3	3	3	3	3	3	3	3	3	3	3	3	3	3	3	3	3	3	3	3	3	3	3	3	3	3	3	3	3	3	3	
POINT_DATA 198

SCALARS Density double 1
LOOKUP_TABLE default
1.518894e+00	1.197008e+00	1.193188e+00	1.117157e+00	1.068661e+00	1.019805e+00	1.002204e+00	9.672920e-01	9.312170e-01	8.779791e-01	8.149000e-01	7.314722e-01	6.604074e-01	5.767152e-01	5.120064e-01	4.970834e-01	5.427767e-01	7.193012e-01	1.035164e+00	1.145817e+00	1.156969e+00	1.145171e+00	1.130215e+00	1.108787e+00	1.089753e+00	1.065433e+00	1.038957e+00	1.021919e+00	9.959863e-01	9.807878e-01	9.868698e-01	9.838588e-01	9.935394e-01	1.009310e+00	1.024307e+00	1.046212e+00	1.063029e+00	1.080931e+00	1.101723e+00	1.115532e+00	1.127636e+00	1.142251e+00	1.145208e+00	1.148561e+00	1.146777e+00	1.127488e+00	1.111974e+00	1.085380e+00	1.036716e+00	9.889858e-01	9.469801e-01	8.607496e-01	7.882160e-01	7.084119e-01	6.294326e-01	6.104754e-01	6.815627e-01	8.993534e-01	1.088818e+00	1.123711e+00	1.150477e+00	1.176255e+00	1.190105e+00	1.197611e+00	1.209857e+00	1.211664e+00	1.214434e+00	1.218025e+00	1.214787e+00	1.217673e+00	1.213360e+00	1.210334e+00	1.206289e+00	1.195924e+00	1.189001e+00	1.177567e+00	1.165017e+00	1.157219e+00	1.146135e+00	1.144577e+00	1.147437e+00	1.148333e+00	1.160084e+00	1.164028e+00	1.172488e+00	1.181345e+00	1.187561e+00	1.195376e+00	1.201040e+00	1.206812e+00	1.211593e+00	1.216542e+00	1.220905e+00	1.225634e+00	1.229733e+00	1.234228e+00	1.235935e+00	1.248294e+00	1.226784e+00	1.255815e+00	1.356740e+00	1.320781e+00	1.332922e+00	1.334182e+00	1.336889e+00	1.339535e+00	1.341504e+00	1.344254e+00	1.346054e+00	1.348619e+00	1.351173e+00	1.352877e+00	1.357551e+00	1.357283e+00	1.363122e+00	1.364489e+00	1.363885e+00	1.368289e+00	1.361921e+00	1.363935e+00	1.357869e+00	1.344805e+00	1.336453e+00	1.318542e+00	1.301526e+00	1.285565e+00	1.259929e+00	1.242810e+00	1.230853e+00	1.215376e+00	1.210262e+00	1.200910e+00	1.194945e+00	1.192345e+00	1.185646e+00	1.178605e+00	1.167932e+00	1.156544e+00	1.138642e+00	1.117614e+00	1.104050e+00	1.069822e+00	1.057595e+00	1.057417e+00	1.057266e+00	1.090994e+00	1.119185e+00	1.151902e+00	1.193090e+00	1.218165e+00	1.238678e+00	1.266240e+00	1.269835e+00	1.272387e+00	1.273241e+00	1.252121e+00	1.240607e+00	1.210118e+00	9.828623e-01	6.902758e-01	5.968796e-01	6.001467e-01	6.668244e-01	7.113879e-01	7.583022e-01	8.272901e-01	8.560985e-01	9.195699e-01	9.755488e-01	1.022964e+00	1.090514e+00	1.114282e+00	1.162169e+00	1.218877e+00	1.248481e+00	1.287211e+00	1.321298e+00	1.346260e+00	1.369488e+00	1.393533e+00	1.408370e+00	1.419707e+00	1.432385e+00	1.439578e+00	1.448394e+00	1.456129e+00	1.460978e+00	1.468502e+00	1.473186e+00	1.481524e+00	1.487486e+00	1.498085e+00	1.516892e+00	1.536071e+00	1.573263e+00	1.603006e+00	1.619684e+00	1.667227e+00	
VECTORS Momentum double
1.586528e+01	2.150677e+02	0.0	1.655829e+02	1.936838e+02	0.0	2.025200e+02	1.896032e+02	0.0	2.406093e+02	1.749059e+02	0.0	2.643722e+02	1.605411e+02	0.0	2.767673e+02	1.396603e+02	0.0	2.872527e+02	1.286438e+02	0.0	2.927854e+02	1.149810e+02	0.0	2.976432e+02	1.033330e+02	0.0	2.988709e+02	8.761308e+01	0.0	2.980657e+02	7.075999e+01	0.0	2.885322e+02	4.690178e+01	0.0	2.794394e+02	2.728719e+01	0.0	2.595842e+02	3.883045e+00	0.0	2.390186e+02	-1.254343e+01	0.0	2.328140e+02	-1.700353e+01	0.0	2.426118e+02	-1.472578e+01	0.0	2.344938e+02	-4.282206e+00	0.0	2.265511e+02	9.324159e+00	0.0	2.214452e+02	1.733565e+01	0.0	2.230821e+02	2.579145e+01	0.0	2.267726e+02	3.291058e+01	0.0	2.335123e+02	3.778288e+01	0.0	2.392857e+02	3.916174e+01	0.0	2.459248e+02	4.096206e+01	0.0	2.533254e+02	4.037372e+01	0.0	2.582126e+02	3.672329e+01	0.0	2.636206e+02	3.529387e+01	0.0	2.678392e+02	3.001583e+01	0.0	2.686526e+02	2.322920e+01	0.0	2.703195e+02	2.128085e+01	0.0	2.699556e+02	1.589114e+01	0.0	2.690981e+02	1.211899e+01	0.0	2.675828e+02	9.319164e+00	0.0	2.649125e+02	5.539316e+00	0.0	2.624726e+02	4.174905e+00	0.0	2.594697e+02	2.175000e+00	0.0	2.546675e+02	4.813406e-01	0.0	2.511375e+02	1.202806e+00	0.0	2.474142e+02	2.174293e+00	0.0	2.433123e+02	3.216019e+00	0.0	2.411115e+02	7.510438e+00	0.0	2.391969e+02	1.065754e+01	0.0	2.384637e+02	1.546000e+01	0.0	2.411601e+02	2.282680e+01	0.0	2.445797e+02	2.590148e+01	0.0	2.495783e+02	3.040880e+01	0.0	2.579535e+02	3.502155e+01	0.0	2.660506e+02	3.235428e+01	0.0	2.717066e+02	2.743230e+01	0.0	2.797266e+02	2.487435e+01	0.0	2.783547e+02	9.048215e+00	0.0	2.758088e+02	-4.649006e+00	0.0	2.681925e+02	-1.865366e+01	0.0	2.535479e+02	-3.697222e+01	0.0	2.441118e+02	-4.367512e+01	0.0	2.369083e+02	-5.161113e+01	0.0	2.158175e+02	-5.869718e+01	0.0	1.981124e+02	-5.273027e+01	0.0	1.851320e+02	-5.248375e+01	0.0	1.696773e+02	-4.873515e+01	0.0	1.587456e+02	-4.124122e+01	0.0	1.512778e+02	-3.484031e+01	0.0	1.430801e+02	-3.089680e+01	0.0	1.375984e+02	-2.395135e+01	0.0	1.338941e+02	-1.982572e+01	0.0	1.302716e+02	-1.574104e+01	0.0	1.307737e+02	-1.105641e+01	0.0	1.319509e+02	-9.093932e+00	0.0	1.331836e+02	-4.740002e+00	0.0	1.364187e+02	-1.869041e+00	0.0	1.405053e+02	1.268434e+00	0.0	1.473274e+02	5.178331e+00	0.0	1.546658e+02	6.454341e+00	0.0	1.625942e+02	8.178456e+00	0.0	1.708327e+02	8.105572e+00	0.0	1.778289e+02	5.627578e+00	0.0	1.844765e+02	3.242153e+00	0.0	1.888073e+02	-3.450677e+00	0.0	1.892895e+02	-9.407316e+00	0.0	1.890627e+02	-1.417663e+01	0.0	1.852970e+02	-2.013868e+01	0.0	1.818150e+02	-2.201474e+01	0.0	1.771054e+02	-2.522938e+01	0.0	1.712607e+02	-2.687278e+01	0.0	1.663551e+02	-2.740639e+01	0.0	1.609528e+02	-2.811747e+01	0.0	1.556500e+02	-2.760038e+01	0.0	1.511678e+02	-2.725945e+01	0.0	1.466999e+02	-2.671307e+01	0.0	1.423259e+02	-2.629923e+01	0.0	1.382000e+02	-2.584276e+01	0.0	1.337432e+02	-2.526690e+01	0.0	1.296733e+02	-2.470358e+01	0.0	1.251463e+02	-2.408735e+01	0.0	1.206152e+02	-2.349622e+01	0.0	1.147104e+02	-2.272247e+01	0.0	1.121878e+02	-2.197009e+01	0.0	9.980524e+01	-2.342720e+01	0.0	1.351250e+02	4.702885e+00	0.0	2.181815e+02	-1.251071e+01	0.0	1.992931e+02	-5.754212e+00	0.0	2.019774e+02	-4.831250e+00	0.0	1.998691e+02	-3.295618e+00	0.0	1.983999e+02	-1.709216e+00	0.0	1.968434e+02	-3.163853e-01	0.0	1.951995e+02	1.090311e+00	0.0	1.935875e+02	2.271307e+00	0.0	1.920613e+02	3.819792e+00	0.0	1.905746e+02	5.044676e+00	0.0	1.888406e+02	6.403574e+00	0.0	1.871998e+02	8.019280e+00	0.0	1.851969e+02	9.292865e+00	0.0	1.832282e+02	1.219741e+01	0.0	1.813234e+02	1.366043e+01	0.0	1.782086e+02	1.777426e+01	0.0	1.775358e+02	2.229963e+01	0.0	1.769657e+02	2.556359e+01	0.0	1.765189e+02	3.249276e+01	0.0	1.778649e+02	3.660718e+01	0.0	1.782770e+02	4.428089e+01	0.0	1.832288e+02	5.275941e+01	0.0	1.905866e+02	5.716945e+01	0.0	1.973523e+02	6.291085e+01	0.0	2.069188e+02	6.611984e+01	0.0	2.156966e+02	6.708627e+01	0.0	2.243131e+02	6.849730e+01	0.0	2.343971e+02	6.526538e+01	0.0	2.407876e+02	6.120167e+01	0.0	2.456477e+02	5.897963e+01	0.0	2.500875e+02	5.436205e+01	0.0	2.521727e+02	5.250595e+01	0.0	2.548835e+02	5.004380e+01	0.0	2.567107e+02	4.783110e+01	0.0	2.578816e+02	4.774228e+01	0.0	2.600199e+02	4.741937e+01	0.0	2.621808e+02	4.750734e+01	0.0	2.650792e+02	4.701220e+01	0.0	2.686581e+02	4.679948e+01	0.0	2.728954e+02	4.508046e+01	0.0	2.775742e+02	4.085852e+01	0.0	2.798528e+02	3.888114e+01	0.0	2.852519e+02	2.999451e+01	0.0	2.859276e+02	2.142128e+01	0.0	2.841922e+02	1.462906e+01	0.0	2.833745e+02	2.408342e+00	0.0	2.757015e+02	-3.002196e+00	0.0	2.680114e+02	-8.063856e+00	0.0	2.585639e+02	-1.221486e+01	0.0	2.479284e+02	-8.597834e+00	0.0	2.400934e+02	-4.464110e+00	0.0	2.318995e+02	-9.358361e-01	0.0	2.241593e+02	1.060536e+01	0.0	2.228441e+02	1.942592e+01	0.0	2.222602e+02	2.750488e+01	0.0	2.238644e+02	3.931167e+01	0.0	2.310130e+02	4.415843e+01	0.0	2.366725e+02	4.883942e+01	0.0	2.504066e+02	5.372676e+01	0.0	2.619937e+02	5.152036e+01	0.0	2.595352e+02	4.449065e+01	0.0	2.648891e+02	4.239025e+01	0.0	2.862850e+02	2.873750e+01	0.0	2.963119e+02	1.769316e+01	0.0	3.053336e+02	4.495971e+00	0.0	3.190148e+02	-1.415863e+01	0.0	3.193010e+02	-2.270643e+01	0.0	3.268162e+02	-4.088362e+01	0.0	3.271521e+02	-5.433767e+01	0.0	3.259563e+02	-6.584983e+01	0.0	3.258375e+02	-8.229326e+01	0.0	3.193101e+02	-8.578840e+01	0.0	3.159152e+02	-9.758929e+01	0.0	3.077284e+02	-1.059081e+02	0.0	2.998267e+02	-1.059475e+02	0.0	2.930172e+02	-1.104383e+02	0.0	2.840906e+02	-1.104732e+02	0.0	2.765509e+02	-1.078868e+02	0.0	2.700618e+02	-1.060320e+02	0.0	2.635068e+02	-1.030885e+02	0.0	2.584427e+02	-9.756335e+01	0.0	2.549259e+02	-9.336432e+01	0.0	2.512437e+02	-9.057356e+01	0.0	2.480398e+02	-8.657018e+01	0.0	2.451988e+02	-8.431411e+01	0.0	2.419709e+02	-8.187409e+01	0.0	2.391258e+02	-7.964779e+01	0.0	2.358823e+02	-7.911189e+01	0.0	2.322449e+02	-7.846456e+01	0.0	2.276204e+02	-7.965106e+01	0.0	2.210559e+02	-8.098980e+01	0.0	2.110747e+02	-8.488029e+01	0.0	1.966808e+02	-8.889982e+01	0.0	1.761271e+02	-9.118473e+01	0.0	1.444724e+02	-8.912341e+01	0.0	1.038839e+02	-7.246983e+01	0.0	5.467684e+01	-4.314526e+01	0.0	-1.774180e+01	2.675238e+01	0.0	
SCALARS Energy double 1
LOOKUP_TABLE default
3.337627e+05	2.673333e+05	2.679705e+05	2.535827e+05	2.445392e+05	2.346185e+05	2.314596e+05	2.243805e+05	2.171733e+05	2.061822e+05	1.931724e+05	1.753162e+05	1.602690e+05	1.417622e+05	1.270181e+05	1.234582e+05	1.332560e+05	1.669127e+05	2.315817e+05	2.546342e+05	2.571282e+05	2.548931e+05	2.521721e+05	2.480272e+05	2.444729e+05	2.398739e+05	2.346621e+05	2.315034e+05	2.264092e+05	2.232856e+05	2.246568e+05	2.239787e+05	2.258930e+05	2.290263e+05	2.319240e+05	2.362918e+05	2.395776e+05	2.429830e+05	2.470989e+05	2.497549e+05	2.520413e+05	2.549873e+05	2.555020e+05	2.561805e+05	2.560008e+05	2.521723e+05	2.492648e+05	2.442958e+05	2.347211e+05	2.252448e+05	2.172602e+05	1.995359e+05	1.847242e+05	1.682017e+05	1.514001e+05	1.467793e+05	1.601266e+05	2.029803e+05	2.416362e+05	2.483962e+05	2.533632e+05	2.583508e+05	2.609800e+05	2.622709e+05	2.646739e+05	2.649226e+05	2.653885e+05	2.661619e+05	2.654969e+05	2.661491e+05	2.653217e+05	2.648043e+05	2.641704e+05	2.622115e+05	2.610321e+05	2.589165e+05	2.565280e+05	2.551579e+05	2.529966e+05	2.526970e+05	2.533093e+05	2.533504e+05	2.557071e+05	2.563597e+05	2.579283e+05	2.596249e+05	2.607470e+05	2.622166e+05	2.632650e+05	2.643423e+05	2.652170e+05	2.661416e+05	2.669342e+05	2.678231e+05	2.685677e+05	2.694034e+05	2.696065e+05	2.722017e+05	2.672651e+05	2.744167e+05	2.992525e+05	2.907251e+05	2.934333e+05	2.936103e+05	2.941253e+05	2.946249e+05	2.949774e+05	2.954993e+05	2.958228e+05	2.963124e+05	2.967912e+05	2.970932e+05	2.980178e+05	2.978907e+05	2.990730e+05	2.992623e+05	2.991266e+05	3.000662e+05	2.987264e+05	2.992379e+05	2.980187e+05	2.954975e+05	2.940564e+05	2.905888e+05	2.874293e+05	2.844588e+05	2.794664e+05	2.763219e+05	2.740878e+05	2.710690e+05	2.701899e+05	2.683229e+05	2.672029e+05	2.667426e+05	2.654077e+05	2.640608e+05	2.619627e+05	2.597615e+05	2.562571e+05	2.521457e+05	2.496107e+05	2.426623e+05	2.404636e+05	2.404193e+05	2.402215e+05	2.471095e+05	2.524109e+05	2.587186e+05	2.667575e+05	2.713895e+05	2.752713e+05	2.806650e+05	2.810431e+05	2.815488e+05	2.817436e+05	2.774300e+05	2.754088e+05	2.693213e+05	2.226777e+05	1.644487e+05	1.460351e+05	1.472782e+05	1.623435e+05	1.719667e+05	1.820132e+05	1.970152e+05	2.027532e+05	2.162713e+05	2.276637e+05	2.372838e+05	2.512853e+05	2.556594e+05	2.654677e+05	2.767402e+05	2.823174e+05	2.900280e+05	2.965833e+05	3.013019e+05	3.057691e+05	3.104104e+05	3.131608e+05	3.152952e+05	3.177420e+05	3.190371e+05	3.207309e+05	3.221791e+05	3.230404e+05	3.244822e+05	3.253038e+05	3.268921e+05	3.279003e+05	3.298114e+05	3.333418e+05	3.367719e+05	3.437956e+05	3.490589e+05	3.516738e+05	3.616445e+05	
SCALARS Pressure double 1
LOOKUP_TABLE default
1.273814e+05	9.608442e+04	9.428767e+04	8.559199e+04	7.991175e+04	7.499967e+04	7.281475e+04	6.929429e+04	6.554900e+04	6.037674e+04	5.423543e+04	4.676249e+04	4.023414e+04	3.333147e+04	2.842969e+04	2.745881e+04	3.153384e+04	5.147086e+04	8.269949e+04	9.324176e+04	9.413353e+04	9.278677e+04	9.096711e+04	8.860627e+04	8.638162e+04	8.359706e+04	8.077048e+04	7.875652e+04	7.597737e+04	7.448661e+04	7.496196e+04	7.472584e+04	7.575069e+04	7.740531e+04	7.906095e+04	8.134364e+04	8.316359e+04	8.519322e+04	8.738997e+04	8.892631e+04	9.031468e+04	9.180607e+04	9.218888e+04	9.252864e+04	9.216657e+04	9.013884e+04	8.833620e+04	8.523116e+04	8.003126e+04	7.501639e+04	7.024782e+04	6.179211e+04	5.458225e+04	4.687582e+04	3.969887e+04	3.856414e+04	4.679933e+04	7.006800e+04	8.893438e+04	9.276812e+04	9.592744e+04	9.876632e+04	1.003421e+05	1.013301e+05	1.026449e+05	1.029450e+05	1.033198e+05	1.036366e+05	1.033186e+05	1.035426e+05	1.030606e+05	1.026593e+05	1.020650e+05	1.008771e+05	9.995466e+04	9.859880e+04	9.717700e+04	9.617973e+04	9.497597e+04	9.480240e+04	9.505834e+04	9.528955e+04	9.650027e+04	9.704526e+04	9.804508e+04	9.903761e+04	9.980278e+04	1.007058e+05	1.013769e+05	1.020521e+05	1.026288e+05	1.032069e+05	1.037389e+05	1.042858e+05	1.047856e+05	1.053145e+05	1.056297e+05	1.067868e+05	1.051926e+05	1.068553e+05	1.126607e+05	1.102707e+05	1.112487e+05	1.114542e+05	1.117610e+05	1.120647e+05	1.123102e+05	1.126232e+05	1.128461e+05	1.131351e+05	1.134319e+05	1.136471e+05	1.141415e+05	1.141873e+05	1.147778e+05	1.150036e+05	1.149558e+05	1.153534e+05	1.147598e+05	1.148597e+05	1.142374e+05	1.127921e+05	1.116977e+05	1.097275e+05	1.077207e+05	1.058453e+05	1.030546e+05	1.010017e+05	9.960561e+04	9.792528e+04	9.725202e+04	9.627954e+04	9.558860e+04	9.525938e+04	9.456057e+04	9.376982e+04	9.262758e+04	9.137118e+04	8.944038e+04	8.716766e+04	8.558463e+04	8.214105e+04	8.062781e+04	8.061784e+04	8.076999e+04	8.412200e+04	8.737941e+04	9.100460e+04	9.547089e+04	9.845169e+04	1.007978e+05	1.037718e+05	1.044855e+05	1.047545e+05	1.048190e+05	1.027203e+05	1.012458e+05	9.807669e+04	7.572434e+04	4.512253e+04	3.518058e+04	3.492942e+04	4.010780e+04	4.401432e+04	4.821120e+04	5.415429e+04	5.716273e+04	6.291483e+04	6.851795e+04	7.329327e+04	7.980052e+04	8.264241e+04	8.737293e+04	9.331724e+04	9.672792e+04	1.007758e+05	1.045696e+05	1.074297e+05	1.100146e+05	1.126735e+05	1.144275e+05	1.157351e+05	1.171376e+05	1.180262e+05	1.190088e+05	1.199091e+05	1.205199e+05	1.213627e+05	1.219631e+05	1.229061e+05	1.237079e+05	1.250148e+05	1.271944e+05	1.295872e+05	1.338551e+05	1.376219e+05	1.400705e+05	1.445342e+05	
SCALARS Temperature double 1
LOOKUP_TABLE default
2.921520e+02	2.796317e+02	2.752810e+02	2.669004e+02	2.604960e+02	2.561960e+02	2.531008e+02	2.495573e+02	2.452141e+02	2.395608e+02	2.318511e+02	2.227051e+02	2.122331e+02	2.013369e+02	1.934315e+02	1.924345e+02	2.023885e+02	2.492763e+02	2.783069e+02	2.834820e+02	2.834347e+02	2.822578e+02	2.803842e+02	2.783855e+02	2.761365e+02	2.733350e+02	2.708230e+02	2.684728e+02	2.657426e+02	2.645657e+02	2.646132e+02	2.645869e+02	2.656023e+02	2.671632e+02	2.688823e+02	2.708533e+02	2.725325e+02	2.745601e+02	2.763245e+02	2.777017e+02	2.790101e+02	2.799884e+02	2.804301e+02	2.806418e+02	2.799786e+02	2.785033e+02	2.767417e+02	2.735564e+02	2.689244e+02	2.642387e+02	2.584178e+02	2.500844e+02	2.412329e+02	2.305119e+02	2.197148e+02	2.200624e+02	2.392016e+02	2.714062e+02	2.845410e+02	2.875905e+02	2.904660e+02	2.925079e+02	2.937164e+02	2.947495e+02	2.955518e+02	2.959737e+02	2.963739e+02	2.964063e+02	2.962845e+02	2.962229e+02	2.958921e+02	2.954767e+02	2.947515e+02	2.938458e+02	2.928541e+02	2.916866e+02	2.905773e+02	2.895332e+02	2.886744e+02	2.885392e+02	2.885970e+02	2.890731e+02	2.897808e+02	2.904297e+02	2.913048e+02	2.920476e+02	2.927635e+02	2.934810e+02	2.940438e+02	2.945863e+02	2.950822e+02	2.955370e+02	2.959989e+02	2.964111e+02	2.968390e+02	2.972509e+02	2.977288e+02	2.980101e+02	2.987086e+02	2.964153e+02	2.892718e+02	2.908439e+02	2.907505e+02	2.910125e+02	2.912228e+02	2.914375e+02	2.916469e+02	2.918615e+02	2.920482e+02	2.922394e+02	2.924520e+02	2.926379e+02	2.928990e+02	2.930744e+02	2.933281e+02	2.936107e+02	2.936186e+02	2.936858e+02	2.935406e+02	2.933625e+02	2.930763e+02	2.921795e+02	2.911526e+02	2.899023e+02	2.883212e+02	2.868190e+02	2.849388e+02	2.831094e+02	2.819083e+02	2.806820e+02	2.799300e+02	2.792891e+02	2.786689e+02	2.783148e+02	2.778340e+02	2.771565e+02	2.762822e+02	2.752184e+02	2.736383e+02	2.717027e+02	2.700457e+02	2.674726e+02	2.655802e+02	2.655922e+02	2.661313e+02	2.686071e+02	2.719804e+02	2.752189e+02	2.787584e+02	2.815447e+02	2.834804e+02	2.854920e+02	2.866414e+02	2.868030e+02	2.867870e+02	2.857856e+02	2.842976e+02	2.823375e+02	2.683942e+02	2.277200e+02	2.053273e+02	2.027516e+02	2.095307e+02	2.155350e+02	2.214807e+02	2.280371e+02	2.326053e+02	2.383409e+02	2.446728e+02	2.495940e+02	2.549205e+02	2.583677e+02	2.619014e+02	2.667057e+02	2.698983e+02	2.727326e+02	2.756989e+02	2.779877e+02	2.798480e+02	2.816662e+02	2.830376e+02	2.839858e+02	2.848832e+02	2.856101e+02	2.862351e+02	2.868683e+02	2.873728e+02	2.878994e+02	2.884039e+02	2.889982e+02	2.897178e+02	2.907069e+02	2.921081e+02	2.938875e+02	2.963903e+02	2.990768e+02	3.012637e+02	3.019995e+02	
SCALARS Mach double 1
LOOKUP_TABLE default
4.143551e-01	6.350199e-01	6.990321e-01	8.130119e-01	8.945194e-01	9.473728e-01	9.847016e-01	1.026840e+00	1.077791e+00	1.143259e+00	1.231572e+00	1.335813e+00	1.455731e+00	1.582541e+00	1.676645e+00	1.688670e+00	1.570172e+00	1.030158e+00	6.549584e-01	5.743360e-01	5.751101e-01	5.941200e-01	6.234974e-01	6.537869e-01	6.867616e-01	7.264452e-01	7.609161e-01	7.923580e-01	8.280403e-01	8.431753e-01	8.425673e-01	8.429031e-01	8.298521e-01	8.095799e-01	7.869321e-01	7.605067e-01	7.375623e-01	7.092654e-01	6.840463e-01	6.639284e-01	6.444280e-01	6.295757e-01	6.227887e-01	6.195179e-01	6.297267e-01	6.520281e-01	6.779943e-01	7.233584e-01	7.863726e-01	8.473550e-01	9.202233e-01	1.020608e+00	1.123977e+00	1.246847e+00	1.369939e+00	1.365969e+00	1.147393e+00	7.529982e-01	5.567985e-01	5.037057e-01	4.491204e-01	4.066913e-01	3.796640e-01	3.551279e-01	3.349618e-01	3.239017e-01	3.130794e-01	3.121897e-01	3.155281e-01	3.172028e-01	3.260689e-01	3.368951e-01	3.550780e-01	3.766691e-01	3.991142e-01	4.241961e-01	4.468974e-01	4.674063e-01	4.837293e-01	4.862572e-01	4.851766e-01	4.762091e-01	4.626125e-01	4.498434e-01	4.321238e-01	4.165803e-01	4.011094e-01	3.850599e-01	3.720453e-01	3.591024e-01	3.468945e-01	3.353430e-01	3.232295e-01	3.120576e-01	3.000522e-01	2.880607e-01	2.735302e-01	2.646282e-01	2.411899e-01	3.119418e-01	4.724243e-01	4.415336e-01	4.434179e-01	4.381118e-01	4.338113e-01	4.293841e-01	4.250264e-01	4.205220e-01	4.165692e-01	4.124865e-01	4.079038e-01	4.038603e-01	3.981218e-01	3.942251e-01	3.885282e-01	3.820968e-01	3.819150e-01	3.803693e-01	3.837005e-01	3.877522e-01	3.941828e-01	4.137683e-01	4.352498e-01	4.602447e-01	4.903117e-01	5.175439e-01	5.501019e-01	5.804112e-01	5.996793e-01	6.188941e-01	6.304696e-01	6.402174e-01	6.495526e-01	6.548409e-01	6.619749e-01	6.719412e-01	6.846569e-01	6.999239e-01	7.222156e-01	7.489536e-01	7.713961e-01	8.055294e-01	8.301377e-01	8.299823e-01	8.230108e-01	7.905810e-01	7.451528e-01	6.999167e-01	6.482100e-01	6.054225e-01	5.743628e-01	5.406817e-01	5.206868e-01	5.178275e-01	5.181109e-01	5.356300e-01	5.608669e-01	5.928469e-01	7.933975e-01	1.278667e+00	1.535771e+00	1.565909e+00	1.486933e+00	1.417776e+00	1.349778e+00	1.275055e+00	1.222963e+00	1.157291e+00	1.084097e+00	1.026406e+00	9.628213e-01	9.208393e-01	8.769497e-01	8.155494e-01	7.733741e-01	7.348006e-01	6.930560e-01	6.597001e-01	6.317224e-01	6.035073e-01	5.815764e-01	5.660439e-01	5.510422e-01	5.386551e-01	5.278239e-01	5.166677e-01	5.076411e-01	4.980792e-01	4.887761e-01	4.776280e-01	4.638353e-01	4.442961e-01	4.152932e-01	3.757000e-01	3.126288e-01	2.279174e-01	1.235851e-01	5.526742e-02	
SCALARS Pressure_Coefficient double 1
LOOKUP_TABLE default