# vtk DataFile Version 3.0
vtk output
ASCII
DATASET UNSTRUCTURED_GRID
POINTS 1820 double
1.000000e+02	0.000000e+00	0.0	9.917900e+01	1.278772e+01	0.0	9.672949e+01	2.536546e+01	0.0	9.269168e+01	3.752670e+01	0.0	8.713187e+01	4.907176e+01	0.0	8.014136e+01	5.981105e+01	0.0	7.183494e+01	6.956826e+01	0.0	6.234898e+01	7.818315e+01	0.0	5.183926e+01	8.551428e+01	0.0	4.047833e+01	9.144126e+01	0.0	2.845276e+01	9.586679e+01	0.0	1.595999e+01	9.871818e+01	0.0	3.205158e+00	9.994862e+01	0.0	-9.602303e+00	9.953791e+01	0.0	-2.225209e+01	9.749279e+01	0.0	-3.453651e+01	9.384684e+01	0.0	-4.625383e+01	8.865993e+01	0.0	-5.721167e+01	8.201723e+01	0.0	-6.723009e+01	7.402780e+01	0.0	-7.614460e+01	6.482284e+01	0.0	-8.380881e+01	5.455349e+01	0.0	-9.009689e+01	4.338837e+01	0.0	-9.490557e+01	3.151082e+01	0.0	-9.815592e+01	1.911586e+01	0.0	-9.979454e+01	6.407022e+00	0.0	-9.979454e+01	-6.407022e+00	0.0	-9.815592e+01	-1.911586e+01	0.0	-9.490557e+01	-3.151082e+01	0.0	-9.009689e+01	-4.338837e+01	0.0	-8.380881e+01	-5.455349e+01	0.0	-7.614460e+01	-6.482284e+01	0.0	-6.723009e+01	-7.402780e+01	0.0	-5.721167e+01	-8.201723e+01	0.0	-4.625383e+01	-8.865993e+01	0.0	-3.453651e+01	-9.384684e+01	0.0	-2.225209e+01	-9.749279e+01	0.0	-9.602303e+00	-9.953791e+01	0.0	3.205158e+00	-9.994862e+01	0.0	1.595999e+01	-9.871818e+01	0.0	2.845276e+01	-9.586679e+01	0.0	4.047833e+01	-9.144126e+01	0.0	5.183926e+01	-8.551428e+01	0.0	6.234898e+01	-7.818315e+01	0.0	7.183494e+01	-6.956826e+01	0.0	8.014136e+01	-5.981105e+01	0.0	8.713187e+01	-4.907176e+01	0.0	9.269168e+01	-3.752670e+01	0.0	9.672949e+01	-2.536546e+01	0.0	9.917900e+01	-1.278772e+01	0.0	0.000000e+00	0.000000e+00	0.0	3.054891e-03	3.958237e-03	0.0	6.223578e-03	8.063921e-03	0.0	1.065865e-02	1.109504e-02	0.0	1.529945e-02	1.417508e-02	0.0	2.060137e-02	1.646245e-02	0.0	2.610669e-02	1.879335e-02	0.0	3.196258e-02	2.079965e-02	0.0	3.803254e-02	2.284177e-02	0.0	4.436660e-02	2.477944e-02	0.0	5.093092e-02	2.672479e-02	0.0	5.775115e-02	2.860389e-02	0.0	6.481887e-02	3.044997e-02	0.0	7.213573e-02	3.227076e-02	0.0	7.973520e-02	3.392402e-02	0.0	8.759904e-02	3.547710e-02	0.0	9.578001e-02	3.663285e-02	0.0	1.042385e-01	3.747739e-02	0.0	1.129800e-01	3.797504e-02	0.0	1.219782e-01	3.810961e-02	0.0	1.312322e-01	3.797521e-02	0.0	1.407365e-01	3.781676e-02	0.0	1.504911e-01	3.762370e-02	0.0	1.604959e-01	3.742834e-02	0.0	1.707437e-01	3.784029e-02	0.0	1.812390e-01	3.826219e-02	0.0	1.919257e-01	3.925997e-02	0.0	2.027955e-01	4.089252e-02	0.0	2.139017e-01	4.256059e-02	0.0	2.250603e-01	4.517741e-02	0.0	2.364218e-01	4.795406e-02	0.0	2.480059e-01	5.076512e-02	0.0	2.598148e-01	5.357538e-02	0.0	2.718295e-01	5.643459e-02	0.0	2.841914e-01	5.854294e-02	0.0	2.968248e-01	6.026111e-02	0.0	3.096550e-01	6.178573e-02	0.0	3.227636e-01	6.143013e-02	0.0	3.360391e-01	6.107001e-02	0.0	3.494135e-01	5.994926e-02	0.0	3.628913e-01	5.827896e-02	0.0	3.765007e-01	5.659309e-02	0.0	3.902308e-01	5.490409e-02	0.0	4.040673e-01	5.320200e-02	0.0	4.180496e-01	5.216529e-02	0.0	4.321562e-01	5.169348e-02	0.0	4.463277e-01	5.128794e-02	0.0	4.605309e-01	5.219122e-02	0.0	4.747710e-01	5.309685e-02	0.0	4.890144e-01	5.424352e-02	0.0	5.032502e-01	5.558238e-02	0.0	5.174807e-01	5.689051e-02	0.0	5.317274e-01	5.768727e-02	0.0	5.459371e-01	5.848198e-02	0.0	5.601041e-01	5.859129e-02	0.0	5.742121e-01	5.816401e-02	0.0	5.882362e-01	5.767914e-02	0.0	6.021039e-01	5.625452e-02	0.0	6.158651e-01	5.484084e-02	0.0	6.294639e-01	5.309939e-02	0.0	6.428945e-01	5.108455e-02	0.0	6.561821e-01	4.909116e-02	0.0	6.692704e-01	4.684102e-02	0.0	6.821938e-01	4.461615e-02	0.0	6.949400e-01	4.240659e-02	0.0	7.074988e-01	4.020855e-02	0.0	7.198650e-01	3.804425e-02	0.0	7.320540e-01	3.605649e-02	0.0	7.440384e-01	3.412696e-02	0.0	7.558267e-01	3.236836e-02	0.0	7.674307e-01	3.090567e-02	0.0	7.788064e-01	2.947175e-02	0.0	7.899981e-01	2.854464e-02	0.0	8.009551e-01	2.767126e-02	0.0	8.116819e-01	2.699069e-02	0.0	8.221699e-01	2.641768e-02	0.0	8.324087e-01	2.582425e-02	0.0	8.423961e-01	2.520032e-02	0.0	8.521282e-01	2.452599e-02	0.0	8.615854e-01	2.356699e-02	0.0	8.707931e-01	2.263329e-02	0.0	8.797199e-01	2.145748e-02	0.0	8.883924e-01	2.025433e-02	0.0	8.968090e-01	1.901453e-02	0.0	9.049626e-01	1.767905e-02	0.0	9.128758e-01	1.638292e-02	0.0	9.205376e-01	1.504432e-02	0.0	9.279623e-01	1.373068e-02	0.0	9.351533e-01	1.244335e-02	0.0	9.421125e-01	1.117177e-02	0.0	9.488479e-01	9.940458e-03	0.0	9.553582e-01	8.719173e-03	0.0	9.616531e-01	7.538279e-03	0.0	9.677332e-01	6.376467e-03	0.0	9.736061e-01	5.250546e-03	0.0	9.792739e-01	4.147016e-03	0.0	9.847434e-01	3.075632e-03	0.0	9.900183e-01	2.030593e-03	0.0	9.951027e-01	1.007677e-03	0.0	1.000000e+00	0.000000e+00	0.0	9.950060e-01	2.381162e-04	0.0	9.898216e-01	4.293475e-04	0.0	9.844426e-01	5.700829e-04	0.0	9.788648e-01	6.677560e-04	0.0	9.730838e-01	7.418541e-04	0.0	9.670946e-01	7.601065e-04	0.0	9.608930e-01	7.558259e-04	0.0	9.544745e-01	6.871965e-04	0.0	9.478347e-01	6.023601e-04	0.0	9.409708e-01	4.224134e-04	0.0	9.338768e-01	2.364372e-04	0.0	9.265527e-01	-6.359136e-05	0.0	9.189920e-01	-3.977842e-04	0.0	9.111979e-01	-8.594315e-04	0.0	9.031726e-01	-1.530720e-03	0.0	8.949012e-01	-2.222593e-03	0.0	8.864479e-01	-3.486995e-03	0.0	8.777549e-01	-4.861703e-03	0.0	8.688934e-01	-6.658621e-03	0.0	8.599042e-01	-9.074346e-03	0.0	8.506690e-01	-1.155619e-02	0.0	8.414804e-01	-1.501096e-02	0.0	8.320615e-01	-1.857996e-02	0.0	8.224073e-01	-2.224326e-02	0.0	8.125187e-01	-2.599917e-02	0.0	8.023194e-01	-2.960506e-02	0.0	7.916232e-01	-3.247542e-02	0.0	7.806919e-01	-3.540889e-02	0.0	7.692164e-01	-3.664517e-02	0.0	7.574722e-01	-3.770441e-02	0.0	7.454747e-01	-3.813501e-02	0.0	7.332322e-01	-3.798598e-02	0.0	7.207739e-01	-3.784788e-02	0.0	7.081069e-01	-3.788572e-02	0.0	6.952402e-01	-3.792416e-02	0.0	6.822329e-01	-3.880193e-02	0.0	6.690836e-01	-4.033193e-02	0.0	6.557782e-01	-4.195316e-02	0.0	6.426174e-01	-4.525073e-02	0.0	6.293133e-01	-4.858418e-02	0.0	6.159431e-01	-5.219125e-02	0.0	6.025290e-01	-5.610516e-02	0.0	5.890098e-01	-6.004974e-02	0.0	5.752296e-01	-6.337897e-02	0.0	5.613472e-01	-6.664112e-02	0.0	5.472946e-01	-6.929555e-02	0.0	5.329890e-01	-7.076113e-02	0.0	5.186457e-01	-7.223056e-02	0.0	5.042150e-01	-7.242599e-02	0.0	4.897663e-01	-7.241995e-02	0.0	4.753298e-01	-7.218882e-02	0.0	4.609227e-01	-7.162137e-02	0.0	4.465533e-01	-7.105540e-02	0.0	4.322279e-01	-7.080230e-02	0.0	4.179693e-01	-7.057191e-02	0.0	4.037944e-01	-7.064512e-02	0.0	3.897176e-01	-7.105978e-02	0.0	3.757502e-01	-7.147122e-02	0.0	3.619200e-01	-7.222548e-02	0.0	3.482251e-01	-7.297407e-02	0.0	3.346784e-01	-7.372752e-02	0.0	3.212914e-01	-7.448440e-02	0.0	3.080743e-01	-7.522670e-02	0.0	2.950250e-01	-7.568229e-02	0.0	2.821662e-01	-7.613122e-02	0.0	2.695030e-01	-7.629691e-02	0.0	2.570442e-01	-7.620327e-02	0.0	2.448013e-01	-7.610567e-02	0.0	2.328122e-01	-7.523370e-02	0.0	2.210514e-01	-7.437834e-02	0.0	2.095816e-01	-7.305206e-02	0.0	1.984098e-01	-7.123826e-02	0.0	1.874783e-01	-6.946349e-02	0.0	1.769561e-01	-6.691962e-02	0.0	1.666888e-01	-6.437519e-02	0.0	1.567152e-01	-6.171366e-02	0.0	1.470821e-01	-5.877163e-02	0.0	1.376925e-01	-5.590394e-02	0.0	1.285914e-01	-5.296955e-02	0.0	1.197505e-01	-5.005736e-02	0.0	1.111502e-01	-4.722704e-02	0.0	1.027831e-01	-4.449775e-02	0.0	9.465491e-02	-4.184641e-02	0.0	8.675637e-02	-3.929542e-02	0.0	7.908640e-02	-3.684025e-02	0.0	7.164807e-02	-3.446239e-02	0.0	6.442804e-02	-3.219370e-02	0.0	5.743475e-02	-2.999626e-02	0.0	5.066003e-02	-2.788388e-02	0.0	4.410367e-02	-2.584405e-02	0.0	3.779538e-02	-2.377127e-02	0.0	3.170927e-02	-2.173154e-02	0.0	2.596455e-02	-1.939827e-02	0.0	2.050813e-02	-1.694898e-02	0.0	1.547785e-02	-1.409894e-02	0.0	1.088374e-02	-1.095493e-02	0.0	6.631865e-03	-7.661859e-03	0.0	2.932360e-03	-4.024845e-03	0.0	-1.552369e+01	-4.537808e+01	0.0	-6.079981e+00	-3.690814e+01	0.0	-1.794434e+01	-3.705017e+01	0.0	8.871335e+01	2.530753e+01	0.0	8.430793e+01	1.546790e+01	0.0	7.539916e+01	-1.270754e+01	0.0	7.648463e+01	-2.555632e+01	0.0	8.715018e+01	-1.797294e+01	0.0	8.652284e+01	-4.370524e+00	0.0	5.400689e+01	2.468841e+01	0.0	4.689079e+01	3.141408e+01	0.0	4.291713e+01	2.137758e+01	0.0	7.609236e+01	2.527677e+01	0.0	7.305970e+01	-3.558558e+01	0.0	7.645870e+01	-4.281654e+01	0.0	8.224301e+01	-3.638033e+01	0.0	8.705980e+01	-2.856035e+01	0.0	5.123492e+01	3.828077e+01	0.0	4.166186e+01	4.037858e+01	0.0	5.644436e+01	-6.312190e+01	0.0	5.506905e+01	-5.292674e+01	0.0	4.794417e+01	-6.401229e+01	0.0	6.822361e+01	6.001779e+01	0.0	7.283570e+01	4.904570e+01	0.0	5.755050e+01	6.629659e+01	0.0	4.577192e+01	-7.385142e+01	0.0	5.445623e+01	-7.213930e+01	0.0	6.519846e+01	-4.263688e+01	0.0	5.085751e+01	7.529083e+01	0.0	2.717215e+01	5.559944e+01	0.0	2.073102e+01	6.316819e+01	0.0	1.628913e+01	5.385393e+01	0.0	6.278602e+01	-6.716721e+01	0.0	2.528552e+01	7.290042e+01	0.0	3.867285e+01	7.864122e+01	0.0	2.438032e+01	8.634630e+01	0.0	3.678129e+01	-6.746923e+01	0.0	2.856731e+01	-7.607354e+01	0.0	3.908437e+01	-8.002660e+01	0.0	-2.917576e+00	6.383227e+01	0.0	-7.140166e+00	5.127436e+01	0.0	4.795762e+00	5.240583e+01	0.0	9.090687e+00	8.911674e+01	0.0	1.205684e+01	7.736502e+01	0.0	2.275430e+01	4.520907e+01	0.0	1.146304e+01	4.334286e+01	0.0	1.054122e+00	4.816231e-02	0.0	1.081537e+00	7.412766e-02	0.0	1.039604e+00	8.536437e-02	0.0	3.895615e+00	-2.384852e+00	0.0	5.750894e+00	-2.483012e+00	0.0	4.834857e+00	-1.044646e+00	0.0	3.836442e+00	-2.124893e-01	0.0	3.622944e+00	-1.191647e+00	0.0	6.901699e-01	2.070549e+00	0.0	1.612176e+00	1.955832e+00	0.0	1.390277e+00	2.712461e+00	0.0	1.080284e+00	-6.453119e-02	0.0	1.060024e+00	-3.361956e-02	0.0	1.040461e+00	-5.544810e-02	0.0	1.004530e+00	6.904753e-02	0.0	1.027910e+00	5.066843e-02	0.0	1.005264e+00	8.363219e-03	0.0	1.006733e+00	1.535138e-02	0.0	1.000543e+00	1.244256e-02	0.0	9.874855e-01	1.373809e-02	0.0	9.809510e-01	1.332942e-02	0.0	9.858221e-01	8.954325e-03	0.0	9.815076e-01	7.600712e-03	0.0	9.890352e-01	6.032355e-03	0.0	9.609727e-01	2.197039e-02	0.0	9.678888e-01	1.634297e-02	0.0	9.691905e-01	2.333538e-02	0.0	9.721187e-01	8.980324e-03	0.0	9.692876e-01	1.110456e-02	0.0	9.654991e-01	1.115210e-02	0.0	9.131370e-01	5.558213e-02	0.0	9.355226e-01	6.296328e
[...]
POINT_DATA 1820

SCALARS Density double 1
LOOKUP_TABLE default
1.291765e+00	1.291818e+00	1.292091e+00	1.292211e+00	1.292160e+00	1.292104e+00	1.292079e+00	1.292044e+00	1.291999e+00	1.291958e+00	1.291929e+00	1.291914e+00	1.291920e+00	1.291958e+00	1.292017e+00	1.292080e+00	1.292132e+00	1.292175e+00	1.292207e+00	1.292231e+00	1.292248e+00	1.292261e+00	1.292271e+00	1.292279e+00	1.292286e+00	1.292294e+00	1.292302e+00	1.292311e+00	1.292322e+00	1.292337e+00	1.292356e+00	1.292381e+00	1.292413e+00	1.292454e+00	1.292502e+00	1.292551e+00	1.292607e+00	1.292648e+00	1.292653e+00	1.292636e+00	1.292599e+00	1.292551e+00	1.292501e+00	1.292450e+00	1.292399e+00	1.292364e+00	1.292378e+00	1.292297e+00	1.292035e+00	1.523903e+00	1.197946e+00	1.171027e+00	1.048192e+00	9.932294e-01	9.576719e-01	9.819452e-01	1.002914e+00	1.027709e+00	1.031244e+00	1.025130e+00	1.011539e+00	9.971286e-01	9.659213e-01	9.248771e-01	8.668205e-01	7.977872e-01	7.397834e-01	6.887252e-01	6.578712e-01	7.212835e-01	1.000697e+00	1.195054e+00	1.244967e+00	1.255405e+00	1.260434e+00	1.277060e+00	1.261259e+00	1.255694e+00	1.238242e+00	1.190392e+00	1.145816e+00	1.101226e+00	1.024588e+00	9.440062e-01	9.026977e-01	7.847104e-01	6.919778e-01	6.571255e-01	6.085509e-01	5.895749e-01	5.935199e-01	6.150859e-01	7.833432e-01	1.067965e+00	1.153205e+00	1.171424e+00	1.167796e+00	1.131144e+00	1.117586e+00	1.087141e+00	1.038597e+00	1.000774e+00	9.590996e-01	9.130439e-01	9.056157e-01	9.058443e-01	9.313971e-01	9.892606e-01	1.024493e+00	1.057290e+00	1.082573e+00	1.104720e+00	1.129902e+00	1.147052e+00	1.162175e+00	1.178155e+00	1.189908e+00	1.199300e+00	1.210668e+00	1.213704e+00	1.219413e+00	1.220687e+00	1.212884e+00	1.210247e+00	1.201327e+00	1.193113e+00	1.187704e+00	1.179609e+00	1.180927e+00	1.184685e+00	1.186969e+00	1.197207e+00	1.201532e+00	1.210021e+00	1.217970e+00	1.224294e+00	1.232203e+00	1.238217e+00	1.244380e+00	1.250043e+00	1.255684e+00	1.261573e+00	1.267056e+00	1.273086e+00	1.279477e+00	1.285258e+00	1.296050e+00	1.301422e+00	1.282666e+00	1.407707e+00	1.385720e+00	1.394319e+00	1.394510e+00	1.398975e+00	1.401483e+00	1.404195e+00	1.407744e+00	1.410522e+00	1.414280e+00	1.417850e+00	1.421789e+00	1.429952e+00	1.430302e+00	1.441179e+00	1.444141e+00	1.441379e+00	1.449202e+00	1.437170e+00	1.436813e+00	1.425950e+00	1.389069e+00	1.361304e+00	1.319142e+00	1.255509e+00	1.202990e+00	1.107187e+00	1.074694e+00	1.112481e+00	1.141966e+00	1.205097e+00	1.265534e+00	1.298732e+00	1.339452e+00	1.371903e+00	1.366701e+00	1.389439e+00	1.384478e+00	1.349074e+00	1.330327e+00	1.293187e+00	1.242031e+00	1.187946e+00	1.056860e+00	8.892603e-01	8.642387e-01	8.937837e-01	9.593763e-01	1.046218e+00	1.090090e+00	1.141685e+00	1.195307e+00	1.222403e+00	1.241692e+00	1.259050e+00	1.256318e+00	1.254878e+00	1.247378e+00	1.227396e+00	1.213413e+00	1.193592e+00	1.164692e+00	1.143480e+00	1.121375e+00	1.085376e+00	1.036917e+00	9.701686e-01	9.562281e-01	9.667949e-01	9.771092e-01	1.023695e+00	1.044520e+00	1.088597e+00	1.153619e+00	1.180679e+00	1.221952e+00	1.259600e+00	1.286147e+00	1.316195e+00	1.340756e+00	1.360098e+00	1.376417e+00	1.391118e+00	1.403263e+00	1.415348e+00	1.425817e+00	1.434956e+00	1.444478e+00	1.449811e+00	1.458074e+00	1.461055e+00	1.470601e+00	1.488722e+00	1.507192e+00	1.551771e+00	1.589989e+00	1.607877e+00	1.681545e+00	1.292859e+00	1.293109e+00	1.292877e+00	1.292099e+00	1.291967e+00	1.292161e+00	1.292305e+00	1.292202e+00	1.291974e+00	1.292112e+00	1.292030e+00	1.292071e+00	1.292108e+00	1.292373e+00	1.292360e+00	1.292347e+00	1.292317e+00	1.292047e+00	1.291972e+00	1.292491e+00	1.292467e+00	1.292535e+00	1.292070e+00	1.292096e+00	1.292029e+00	1.292560e+00	1.292518e+00	1.292387e+00	1.291997e+00	1.291839e+00	1.291802e+00	1.291712e+00	1.292474e+00	1.291864e+00	1.291937e+00	1.291898e+00	1.292603e+00	1.292648e+00	1.292601e+00	1.291744e+00	1.291651e+00	1.291623e+00	1.291881e+00	1.291838e+00	1.291731e+00	1.291505e+00	1.306626e+00	1.307813e+00	1.307877e+00	1.295672e+00	1.293633e+00	1.292541e+00	1.289008e+00	1.295644e+00	1.266945e+00	1.279282e+00	1.278940e+00	1.349125e+00	1.358132e+00	1.355265e+00	1.303651e+00	1.306842e+00	1.306880e+00	1.303195e+00	1.300310e+00	1.289730e+00	1.284651e+00	1.288776e+00	1.283988e+00	1.294601e+00	1.267688e+00	1.272107e+00	1.276066e+00	1.273290e+00	1.271162e+00	1.267086e+00	1.245635e+00	1.265384e+00	1.257115e+00	1.282003e+00	1.291192e+00	1.290778e+00	1.241945e+00	1.233802e+00	1.239925e+00	1.318113e+00	1.353588e+00	1.245461e+00	1.210323e+00	1.275419e+00	1.138129e+00	1.164570e+00	1.131100e+00	1.280351e+00	1.278601e+00	1.257652e+00	1.159291e+00	1.202569e+00	1.060926e+00	9.263236e-01	1.050983e+00	1.338548e+00	1.355098e+00	1.362115e+00	9.079724e-01	1.371201e+00	1.371524e+00	1.361689e+00	9.056785e-01	1.015867e+00	9.710226e-01	1.043507e+00	1.119901e+00	1.177230e+00	1.207122e+00	1.193851e+00	1.365589e+00	8.466633e-01	9.503374e-01	9.168292e-01	1.234337e+00	1.265807e+00	1.263120e+00	1.222654e+00	9.635553e-01	1.188070e+00	1.029850e+00	1.114456e+00	1.035891e+00	1.045121e+00	1.091714e+00	6.770123e-01	7.362371e-01	1.232558e+00	1.251191e+00	1.251012e+00	8.216860e-01	8.464592e-01	1.186243e+00	1.223938e+00	1.258060e+00	8.835282e-01	8.745039e-01	7.656464e-01	1.189107e+00	1.150786e+00	1.129182e+00	1.263327e+00	9.988477e-01	9.947466e-01	1.084852e+00	6.365271e-01	6.173963e-01	6.660040e-01	1.250690e+00	1.235954e+00	1.259277e+00	1.123935e+00	1.143930e+00	1.126039e+00	1.105509e+00	1.151063e+00	1.153604e+00	1.210235e+00	9.636883e-01	9.734899e-01	9.447595e-01	9.659067e-01	9.890070e-01	1.000410e+00	1.105486e+00	1.115804e+00	1.131121e+00	9.308317e-01	1.133085e+00	1.062876e+00	1.145082e+00	1.186138e+00	1.194415e+00	1.139746e+00	1.070007e+00	1.090012e+00	1.291137e+00	1.291396e+00	1.291069e+00	1.125650e+00	1.119619e+00	1.159303e+00	9.960398e-01	7.303467e-01	9.116658e-01	1.219834e+00	1.232884e+00	1.227774e+00	1.206361e+00	1.187774e+00	1.204849e+00	1.144312e+00	1.163791e+00	1.228020e+00	1.208740e+00	1.233891e+00	1.219565e+00	1.225266e+00	1.173296e+00	1.188015e+00	1.222947e+00	1.230653e+00	1.235941e+00	1.108037e+00	1.089765e+00	1.076598e+00	1.041125e+00	1.197668e+00	1.182429e+00	1.157879e+00	1.244931e+00	1.025409e+00	1.000899e+00	1.228897e+00	1.220508e+00	1.222550e+00	1.222174e+00	1.238921e+00	1.402169e+00	1.406543e+00	1.406141e+00	1.587217e+00	1.608648e+00	1.609085e+00	1.404252e+00	1.406016e+00	1.523069e+00	1.495896e+00	1.519917e+00	1.218583e+00	1.221479e+00	1.221909e+00	1.197058e+00	1.207302e+00	1.203276e+00	1.190835e+00	1.212936e+00	1.197761e+00	1.459393e+00	1.443108e+00	1.447498e+00	1.508037e+00	1.531302e+00	1.518000e+00	1.196941e+00	1.249327e+00	1.409037e+00	1.395918e+00	1.384471e+00	1.302376e+00	1.304388e+00	1.313289e+00	1.259149e+00	1.337564e+00	1.300220e+00	1.327052e+00	1.214714e+00	1.225339e+00	1.245212e+00	1.348405e+00	1.366395e+00	1.432530e+00	1.241177e+00	1.194489e+00	1.437624e+00	1.415712e+00	1.408185e+00	1.402424e+00	1.294934e+00	1.302306e+00	1.275641e+00	1.437917e+00	1.440419e+00	1.432722e+00	1.432029e+00	1.436479e+00	1.397602e+00	1.412708e+00	1.396713e+00	1.435271e+00	1.439087e+00	1.432091e+00	1.434831e+00	1.420565e+00	1.416301e+00	1.420640e+00	1.425459e+00	1.413845e+00	1.352652e+00	1.354902e+00	1.334844e+00	1.337604e+00	1.357642e+00	1.198204e+00	1.155409e+00	1.185511e+00	1.190367e+00	1.212634e+00	1.187245e+00	1.292671e+00	1.292634e+00	1.085611e+00	1.059238e+00	1.117859e+00	1.292617e+00	1.292587e+00	1.292684e+00	1.310687e+00	1.304618e+00	1.303461e+00	1.234198e+00	1.250918e+00	1.366850e+00	1.391836e+00	1.386548e+00	1.321526e+00	1.334268e+00	1.348859e+00	1.292542e+00	1.292526e+00	1.310515e+00	1.321784e+00	1.291776e+00	1.390915e+00	1.384624e+00	1.398199e+00	1.315607e+00	1.360551e+00	1.319185e+00	1.292738e+00	1.292687e+00	1.292716e+00	1.375358e+00	1.420829e+00	1.407376e+00	1.416935e+00	1.243727e+00	1.249103e+00	1.240798e+00	1.236286e+00	1.220602e+00	1.221029e+00	1.491997e+00	1.500004e+00	1.484138e+00	1.218243e+00	1.208643e+00	1.216923e+00	1.266640e+00	1.233955e+00	1.259498e+00	1.229763e+00	1.226535e+00	1.215744e+00	1.220691e+00	1.211143e+00	1.205614e+00	1.210251e+00	1.226988e+00	1.223466e+00	1.214639e+00	1.207728e+00	1.227974e+00	1.173405e+00	1.176286e+00	1.191750e+00	1.244368e+00	1.186073e+00	1.182908e+00	1.168752e+00	1.291798e+00	1.094925e+00	1.049882e+00	1.115319e+00	1.101869e+00	1.122001e+00	1.080204e+00	1.291993e+00	1.291956e+00	1.005511e+00	7.580348e-01	7.066858e-01	5.903211e-01	6.182075e-01	1.291962e+00	1.291910e+00	1.251565e+00	1.235941e+00	1.247885e+00	8.571521e-01	9.800038e-01	9.209548e-01	7.677654e-01	7.455109e-01	1.008832e+00	1.073912e+00	1.092676e+00	1.292045e+00	7.902209e-01	7.359918e-01	8.077509e-01	9.187129e-01	8.912269e-01	8.375330e-01	8.618043e-01	9.198973e-01	9.361897e-01	9.721709e-01	1.292103e+00	1.292204e+00	1.291626e+00	1.291832e+00	1.291424e+00	1.292102e+00	1.291601e+00	1.292423e+00	1.292249e+00	1.292190e+00	1.292222e+00	1.292198e+00	1.061867e+00	1.051622e+00	1.038399e+00	1.090995e+00	1.081552e+00	1.059879e+00	1.292274e+00	1.292256e+00	1.292274e+00	1.292227e+00	1.292234e+00	1.292305e+00	1.292290e+00	1.292311e+00	1.292316e+00	1.292326e+00	1.292366e+00	1.292386e+00	1.292349e+00	1.292399e+00	1.292347e+00	1.292337e+00	1.292424e+00	1.292400e+00	1.292374e+00	1.562141e+00	1.580520e+00	1.598234e+00	1.292299e+00	1.292223e+00	1.292475e+00	1.293380e+00	1.293467e+00	1.292434e+00	1.295536e+00	1.297013e+00	1.295647e+00	1.292506e+00	1.292447e+00	1.156844e+00	1.080995e+00	1.051756e+00	1.617740e+00	1.554171e+00	1.484347e+00	1.520160e+00	1.448192e+00	1.437523e+00	1.426914e+00	1.440030e+00	1.423588e+00	1.418961e+00	1.579476e+00	1.459148e+00	1.436209e+00	1.475991e+00	1.299946e+00	1.304788e+00	1.303150e+00	1.292281e+00	1.292228e+00	1.291068e+00	1.291897e+00	9.851397e-01	1.042771e+00	1.292153e+00	1.292078e+00	1.292694e+00	1.292703e+00	1.293166e+00	1.402922e+00	1.400645e+00	1.293120e+00	1.293043e+00	1.293784e+00	1.292500e+00	1.292417e+00	1.292440e+00	1.292317e+00	1.292294e+00	1.292108e+00	1.292054e+00	1.291992e+00	1.292660e+00	1.293158e+00	1.291957e+00	1.291914e+00	1.291934e+00	1.291852e+00	1.292431e+00	1.292390e+00	1.292423e+00	1.291967e+00	1.292059e+00	1.292073e+00	1.292607e+00	1.292746e+00	1.292588e+00	1.292124e+00	1.292101e+00	1.291958e+00	1.292429e+00	1.292208e+00	1.294719e+00	1.294531e+00	1.293738e+00	1.291866e+00	1.291682e+00	1.291844e+00	1.291770e+00	1.291906e+00	1.290583e+00	1.291109e+00	1.290377e+00	1.289432e+00	1.289537e+00	1.292468e+00	1.292565e+00	1.292523e+00	1.292602e+00	1.292619e+00	1.292683e+00	1.292485e+00	1.292359e+00	1.292342e+00	1.292268e+00	1.292264e+00	1.292244e+00	1.292219e+00	1.292190e+00	1.291906e+00	1.291876e+00	1.292701e+00	1.292769e+00	1.292862e+00	1.292793e+00	1.292131e+00	1.292145e+00	1.292160e+00	1.292064e+00	1.292031e+00	1.291967e+00	1.292005e+00	1.291977e+00	1.291981e+00	1.291959e+00	1.292284e+00	1.292365e+00	1.292595e+00	1.292559e+00	1.292495e+00	1.292677e+00	1.292473e+00	1.292064e+00	1.291821e+00	1.292404e+00	1.292226e+00	1.292705e+00	1.292923e+00	9.818016e-01	1.030349e+00	1.363948e+00	1.367462e+00	1.319934e+00	1.293045e+00	1.292987e+00	1.291873e+00	1.291884e+00	1.292002e+00	1.292791e+00	1.292728e+00	1.291943e+00	1.292156e+00	1.292359e+00	1.292375e+00	1.292507e+00	1.292442e+00	1.291565e+00	1.291334e+00	1.291727e+00	1.292420e+00	1.293142e+00	1.292864e+00	1.053819e+00	1.048849e+00	1.293880e+00	1.294490e+00	1.294538e+00	1.291724e+00	1.292629e+00	1.292941e+00	1.292829e+00	1.293931e+00	1.294317e+00	1.290796e+00	1.292148e+00	1.292245e+00	1.292326e+00	1.292401e+00	1.291766e+00	1.291852e+00	1.292249e+00	1.292312e+00	1.292292e+00	1.292370e+00	1.292040e+00	1.292107e+00	1.292165e+00	1.292745e+00	1.292813e+00	1.291774e+00	1.291806e+00	1.291962e+00	1.292650e+00	1.292025e+00	1.292398e+00	1.292456e+00	1.292573e+00	1.292719e+00	1.291740e+00	1.291634e+00	1.291800e+00	1.292114e+00	1.292678e+00	1.292734e+00	1.291868e+00	1.292038e+00	1.291954e+00	1.292747e+00	1.292559e+00	1.292901e+00	1.293605e+00	1.289692e+00	1.284515e+00	1.291643e+00	1.292393e+00	1.292315e+00	1.292483e+00	1.292436e+00	1.292000e+00	1.292907e+00	1.292222e+00	1.292735e+00	1.291986e+00	1.292729e+00	1.291990e+00	1.291927e+00	1.291882e+00	1.292452e+00	1.292432e+00	1.292299e+00	1.289670e+00	1.289957e+00	1.292046e+00	1.292068e+00	1.292767e+00	1.292568e+00	1.290985e+00	1.294348e+00	1.289921e+00	1.286368e+00	1.291474e+00	1.291923e+00	1.290945e+00	1.292708e+00	1.291635e+00	1.291951e+00	1.296035e+00	1.290898e+00	1.290620e+00	1.331217e+00	1.327873e+00	1.344950e+00	1.293810e+00	1.296841e+00	1.294875e+00	1.295825e+00	1.289746e+00	1.291953e+00	1.291855e+00	1.291725e+00	1.293245e+00	1.292701e+00	1.295556e+00	1.295127e+00	1.299083e+00	1.298275e+00	1.297872e+00	1.292873e+00	1.291194e+00	1.290055e+00	1.286563e+00	1.294091e+00	1.293857e+00	1.291074e+00	1.293114e+00	1.287466e+00	1.293586e+00	1.297196e+00	1.295828e+00	1.294636e+00	1.292183e+00	1.291268e+00	1.288862e+00	1.283774e+00	1.286378e+00	1.288140e+00	1.310605e+00	1.304090e+00	1.290720e+00	1.297242e+00	1.169208e+00	1.172591e+00	1.281207e+00	1.297780e+00	1.286519e+00	1.289425e+00	1.302364e+00	1.295383e+00	1.307451e+00	1.293920e+00	1.298494e+00	1.297544e+00	1.289322e+00	1.285536e+00	1.301189e+00	1.296410e+00	1.296019e+00	1.396973e+00	1.395423e+00	1.293134e+00	1.295048e+00	1.296954e+00	1.299326e+00	1.299172e+00	1.367322e+00	1.341597e+00	1.356133e+00	1.296136e+00	1.287970e+00	1.293040e+00	1.298889e+00	1.282666e+00	1.282053e+00	1.291677e+00	1.296582e+00	1.295226e+00	1.293684e+00	1.299216e+00	1.300881e+00	1.312535e+00	1.277596e+00	1.277305e+00	1.272762e+00	1.298027e+00	1.289713e+00	1.303248e+00	1.301770e+00	1.307214e+00	1.298871e+00	1.310213e+00	1.305253e+00	1.310526e+00	1.387896e+00	1.384186e+00	1.394944e+00	1.294900e+00	1.282721e+00	1.150787e+00	1.123166e+00	1.301000e+00	1.287760e+00	1.289064e+00	1.289737e+00	1.300961e+00	1.299161e+00	1.292009e+00	1.266352e+00	1.298526e+00	1.291494e+00	1.292463e+00	1.301209e+00	1.270892e+00	1.459077e+00	1.455546e+00	1.259553e+00	1.252200e+00	1.294767e+00	1.281380e+00	1.307758e+00	1.174364e+00	1.105534e+00	1.304254e+00	1.299118e+00	1.307060e+00	1.284395e+00	1.303833e+00	1.250445e+00	1.233416e+00	1.288152e+00	1.284048e+00	1.294754e+00	1.297187e+00	1.291613e+00	1.228391e+00	1.286418e+00	1.292260e+00	1.376722e+00	1.420937e+00	1.372122e+00	1.318652e+00	1.274476e+00	1.315584e+00	1.321639e+00	1.390028e+00	1.397301e+00	1.388188e+00	1.324436e+00	1.316721e+00	1.287954e+00	1.295610e+00	1.285908e+00	1.313304e+00	1.224021e+00	1.199019e+00	1.146486e+00	1.060700e+00	1.295480e+00	1.312348e+00	1.316376e+00	1.301160e+00	1.300696e+00	1.340040e+00	1.319439e+00	1.332164e+00	1.425008e+00	1.189582e+00	1.321523e+00	1.285763e+00	1.297409e+00	1.310195e+00	1.320457e+00	1.195805e+00	1.183441e+00	1.321008e+00	1.355316e+00	1.208168e+00	1.249321e+00	1.248318e+00	1.027955e+00	1.030609e+00	1.288467e+00	1.249992e+00	1.208397e+00	1.238249e+00	1.077344e+00	1.036725e+00	1.300663e+00	1.318420e+00	1.283943e+00	1.263999e+00	1.332858e+00	1.331387e+00	1.323108e+00	1.272547e+00	1.290926e+00	1.265449e+00	1.071648e+00	1.334861e+00	1.322721e+00	1.433656e+00	1.441549e+00	1.316548e+00	1.286646e+00	1.327734e+00	1.348996e+00	1.337270e+00	1.274463e+00	1.225093e+00	1.233002e+00	1.322304e+00	1.261534e+00	1.221793e+00	1.177651e+00	1.366053e+00	1.338849e+00	1.347584e+00	1.339088e+00	1.319954e+00	1.055658e+00	1.091727e+00	1.076112e+00	1.107892e+00	1.309818e+00	1.296610e+00	1.344490e+00	1.295287e+00	1.308645e+00	1.143836e+00	1.060814e+00	1.102441e+00	1.101953e+00	1.238028e+00	1.157313e+00	1.348296e+00	1.364223e+00	1.389488e+00	1.343794e+00	1.268012e+00	1.276457e+00	1.234081e+00	1.245392e+00	1.284971e+00	1.148916e+00	1.160271e+00	1.294434e+00	1.310584e+00	1.288308e+00	1.336835e+00	1.336968e+00	1.313185e+00	1.269855e+00	1.336520e+00	1.372274e+00	1.248470e+00	1.283807e+00	1.311568e+00	1.217962e+00	1.210190e+00	1.016917e+00	9.755581e-01	1.002166e+00	1.316891e+00	1.081865e+00	1.053615e+00	1.062615e+00	1.231066e+00	1.140378e+00	1.071421e+00	1.184292e+00	1.199007e+00	1.240537e+00	1.206896e+00	1.295744e+00	1.296901e+00	1.162113e+00	1.131533e+00	1.131422e+00	1.162420e+00	1.244318e+00	1.224979e+00	1.079284e+00	1.100990e+00	1.287174e+00	1.360774e+00	1.373735e+00	1.352910e+00	1.386407e+00	1.295482e+00	1.290914e+00	1.317337e+00	1.359156e+00	1.365012e+00	1.194094e+00	1.114228e+00	1.190192e+00	1.216973e+00	1.308555e+00	1.308567e+00	1.363956e+00	1.369769e+00	1.392286e+00	9.983554e-01	1.236238e+00	1.307347e+00	1.294226e+00	1.160489e+00	1.161947e+00	1.261736e+00	1.277635e+00	1.271167e+00	1.299267e+00	1.299748e+00	1.368869e+00	1.377002e+00	1.133117e+00	1.125858e+00	1.194440e+00	1.204359e+00	1.145399e+00	1.131495e+00	9.966418e-01	1.304702e+00	1.297720e+00	1.403927e+00	1.401023e+00	1.295128e+00	1.282430e+00	1.216191e+00	1.166155e+00	1.078931e+00	1.036935e+00	1.273549e+00	1.373416e+00	1.393451e+00	1.414316e+00	1.434944e+00	1.443290e+00	8.009880e-01	1.357664e+00	1.343799e+00	1.419935e+00	1.198402e+00	1.171641e+00	1.151407e+00	1.209994e+00	1.330650e+00	1.337125e+00	1.285507e+00	1.298973e+00	1.287559e+00	1.070232e+00	1.168047e+00	1.142257e+00	1.070270e+00	9.953918e-01	1.066297e+00	1.210952e+00	1.206039e+00	1.184676e+00	1.215558e+00	1.231759e+00	1.216591e+00	1.257417e+00	9.243251e-01	9.524660e-01	1.069536e+00	1.146133e+00	1.175727e+00	1.196572e+00	9.392307e-01	1.303308e+00	1.305611e+00	1.353405e+00	1.387328e+00	1.390865e+00	1.393039e+00	1.217925e+00	1.224801e+00	1.229538e+00	1.224351e+00	1.206818e+00	1.437491e+00	1.440865e+00	1.243619e+00	1.254817e+00	1.278634e+00	1.339072e+00	9.017226e-01	9.718768e-01	7.175694e-01	7.987371e-01	8.093858e-01	1.152092e+00	1.146336e+00	1.116351e+00	1.151692e+00	1.391081e+00	1.378136e+00	1.399007e+00	1.143576e+00	1.127362e+00	1.192774e+00	1.254869e+00	1.269360e+00	1.288341e+00	1.274871e+00	1.296945e+00	1.241216e+00	1.238483e+00	1.282754e+00	1.339413e+00	1.106632e+00	1.114012e+00	1.279192e+00	1.270975e+00	1.302049e+00	1.276900e+00	1.286952e+00	1.462090e+00	1.471111e+00	1.218259e+00	8.705020e-01	9.417347e-01	1.448771e+00	1.157074e+00	1.161641e+00	1.127532e+00	1.166991e+00	1.115401e+00	9.978115e-01	1.053009e+00	1.022102e+00	1.143855e+00	1.169884e+00	1.233840e+00	1.234869e+00	1.230387e+00	1.291243e+00	1.425344e+00	1.385726e+00	1.219502e+00	1.200075e+00	1.226168e+00	1.168083e+00	1.295869e+00	1.270911e+00	1.261498e+00	1.260371e+00	1.302121e+00	1.024898e+00	1.131969e+00	6.864534e-01	1.422432e+00	1.457727e+00	1.418019e+00	1.145112e+00	1.156748e+00	1.388690e+00	1.296740e+00	1.308659e+00	1.279553e+00	1.284817e+00	1.308152e+00	1.312473e+00	1.314930e+00	1.234758e+00	1.354308e+00	1.345859e+00	1.330637e+00	1.208092e+00	1.267348e+00	1.271084e+00	1.378207e+00	1.386372e+00	1.071042e+00	1.453547e+00	1.492184e+00	1.302569e+00	1.300210e+00	1.366456e+00	1.356934e+00	1.363168e+00	7.515228e-01	1.413221e+00	1.410376e+00	1.379874e+00	1.245222e+00	1.214813e+00	1.233678e+00	1.199838e+00	1.205398e+00	1.196488e+00	1.196643e+00	1.163504e+00	1.189670e+00	1.039152e+00	1.223081e+00	1.230430e+00	1.248689e+00	1.026185e+00	1.213774e+00	1.122003e+00	1.136742e+00	1.275357e+00	1.296958e+00	1.296154e+00	1.297638e+00	1.337583e+00	1.297759e+00	1.325966e+00	1.412816e+00	1.048834e+00	1.080421e+00	1.188407e+00	1.252544e+00	1.020929e+00	1.429703e+00	1.415454e+00	1.486320e+00	1.477105e+00	1.460810e+00	1.483639e+00	1.501477e+00	1.158004e+00	1.319040e+00	1.194544e+00	1.190683e+00	1.158377e+00	1.145954e+00	1.114689e+00	1.193329e+00	1.244939e+00	1.252064e+00	1.240461e+00	1.142078e+00	1.207087e+00	1.409044e+00	1.133850e+00	1.228627e+00	1.232133e+00	1.207178e+00	1.199425e+00	1.209020e+00	1.193658e+00	1.196196e+00	1.189034e+00	1.047789e+00	1.069372e+00	1.032380e+00	9.963367e-01	1.300515e+00	1.290126e+00	1.251788e+00	1.239155e+00	1.176881e+00	1.149503e+00	1.113504e+00	1.070730e+00	1.101899e+00	1.401874e+00	1.476243e+00	1.495332e+00	1.230783e+00	1.059039e+00	1.426962e+00	1.380985e+00	1.245466e+00	1.278972e+00	1.238544e+00	1.251693e+00	9.992415e-01	9.890676e-01	1.378982e+00	1.365723e+00	1.397428e+00	1.348615e+00	1.363942e+00	1.361337e+00	6.323499e-01	6.817174e-01	1.424405e+00	1.424438e+00	1.144061e+00	1.215841e+00	1.194505e+00	1.181655e+00	1.301488e+00	1.301384e+00	1.164007e+00	1.099493