# vtk DataFile Version 3.0
vtk output
ASCII
DATASET UNSTRUCTURED_GRID
POINTS 198 double
0.000000e+00	0.000000e+00	0.0	3.054891e-03	3.958237e-03	0.0	6.223578e-03	8.063921e-03	0.0	1.065865e-02	1.109504e-02	0.0	1.529945e-02	1.417508e-02	0.0	2.060137e-02	1.646245e-02	0.0	2.610669e-02	1.879335e-02	0.0	3.196258e-02	2.079965e-02	0.0	3.803254e-02	2.284177e-02	0.0	4.436660e-02	2.477944e-02	0.0	5.093092e-02	2.672479e-02	0.0	5.775115e-02	2.860389e-02	0.0	6.481887e-02	3.044997e-02	0.0	7.213573e-02	3.227076e-02	0.0	7.973520e-02	3.392402e-02	0.0	8.759904e-02	3.547710e-02	0.0	9.578001e-02	3.663285e-02	0.0	1.042385e-01	3.747739e-02	0.0	1.129800e-01	3.797504e-02	0.0	1.219782e-01	3.810961e-02	0.0	1.312322e-01	3.797521e-02	0.0	1.407365e-01	3.781676e-02	0.0	1.504911e-01	3.762370e-02	0.0	1.604959e-01	3.742834e-02	0.0	1.707437e-01	3.784029e-02	0.0	1.812390e-01	3.826219e-02	0.0	1.919257e-01	3.925997e-02	0.0	2.027955e-01	4.089252e-02	0.0	2.139017e-01	4.256059e-02	0.0	2.250603e-01	4.517741e-02	0.0	2.364218e-01	4.795406e-02	0.0	2.480059e-01	5.076512e-02	0.0	2.598148e-01	5.357538e-02	0.0	2.718295e-01	5.643459e-02	0.0	2.841914e-01	5.854294e-02	0.0	2.968248e-01	6.026111e-02	0.0	3.096550e-01	6.178573e-02	0.0	3.227636e-01	6.143013e-02	0.0	3.360391e-01	6.107001e-02	0.0	3.494135e-01	5.994926e-02	0.0	3.628913e-01	5.827896e-02	0.0	3.765007e-01	5.659309e-02	0.0	3.902308e-01	5.490409e-02	0.0	4.040673e-01	5.320200e-02	0.0	4.180496e-01	5.216529e-02	0.0	4.321562e-01	5.169348e-02	0.0	4.463277e-01	5.128794e-02	0.0	4.605309e-01	5.219122e-02	0.0	4.747710e-01	5.309685e-02	0.0	4.890144e-01	5.424352e-02	0.0	5.032502e-01	5.558238e-02	0.0	5.174807e-01	5.689051e-02	0.0	5.317274e-01	5.768727e-02	0.0	5.459371e-01	5.848198e-02	0.0	5.601041e-01	5.859129e-02	0.0	5.742121e-01	5.816401e-02	0.0	5.882362e-01	5.767914e-02	0.0	6.021039e-01	5.625452e-02	0.0	6.158651e-01	5.484084e-02	0.0	6.294639e-01	5.309939e-02	0.0	6.428945e-01	5.108455e-02	0.0	6.561821e-01	4.909116e-02	0.0	6.692704e-01	4.684102e-02	0.0	6.821938e-01	4.461615e-02	0.0	6.949400e-01	4.240659e-02	0.0	7.074988e-01	4.020855e-02	0.0	7.198650e-01	3.804425e-02	0.0	7.320540e-01	3.605649e-02	0.0	7.440384e-01	3.412696e-02	0.0	7.558267e-01	3.236836e-02	0.0	7.674307e-01	3.090567e-02	0.0	7.788064e-01	2.947175e-02	0.0	7.899981e-01	2.854464e-02	0.0	8.009551e-01	2.767126e-02	0.0	8.116819e-01	2.699069e-02	0.0	8.221699e-01	2.641768e-02	0.0	8.324087e-01	2.582425e-02	0.0	8.423961e-01	2.520032e-02	0.0	8.521282e-01	2.452599e-02	0.0	8.615854e-01	2.356699e-02	0.0	8.707931e-01	2.263329e-02	0.0	8.797199e-01	2.145748e-02	0.0	8.883924e-01	2.025433e-02	0.0	8.968090e-01	1.901453e-02	0.0	9.049626e-01	1.767905e-02	0.0	9.128758e-01	1.638292e-02	0.0	9.205376e-01	1.504432e-02	0.0	9.279623e-01	1.373068e-02	0.0	9.351533e-01	1.244335e-02	0.0	9.421125e-01	1.117177e-02	0.0	9.488479e-01	9.940458e-03	0.0	9.553582e-01	8.719173e-03	0.0	9.616531e-01	7.538279e-03	0.0	9.677332e-01	6.376467e-03	0.0	9.736061e-01	5.250546e-03	0.0	9.792739e-01	4.147016e-03	0.0	9.847434e-01	3.075632e-03	0.0	9.900183e-01	2.030593e-03	0.0	9.951027e-01	1.007677e-03	0.0	1.000000e+00	0.000000e+00	0.0	9.950060e-01	2.381162e-04	0.0	9.898216e-01	4.293475e-04	0.0	9.844426e-01	5.700829e-04	0.0	9.788648e-01	6.677560e-04	0.0	9.730838e-01	7.418541e-04	0.0	9.670946e-01	7.601065e-04	0.0	9.608930e-01	7.558259e-04	0.0	9.544745e-01	6.871965e-04	0.0	9.478347e-01	6.023601e-04	0.0	9.409708e-01	4.224134e-04	0.0	9.338768e-01	2.364372e-04	0.0	9.265527e-01	-6.359136e-05	0.0	9.189920e-01	-3.977842e-04	0.0	9.111979e-01	-8.594315e-04	0.0	9.031726e-01	-1.530720e-03	0.0	8.949012e-01	-2.222593e-03	0.0	8.864479e-01	-3.486995e-03	0.0	8.777549e-01	-4.861703e-03	0.0	8.688934e-01	-6.658621e-03	0.0	8.599042e-01	-9.074346e-03	0.0	8.506690e-01	-1.155619e-02	0.0	8.414804e-01	-1.501096e-02	0.0	8.320615e-01	-1.857996e-02	0.0	8.224073e-01	-2.224326e-02	0.0	8.125187e-01	-2.599917e-02	0.0	8.023194e-01	-2.960506e-02	0.0	7.916232e-01	-3.247542e-02	0.0	7.806919e-01	-3.540889e-02	0.0	7.692164e-01	-3.664517e-02	0.0	7.574722e-01	-3.770441e-02	0.0	7.454747e-01	-3.813501e-02	0.0	7.332322e-01	-3.798598e-02	0.0	7.207739e-01	-3.784788e-02	0.0	7.081069e-01	-3.788572e-02	0.0	6.952402e-01	-3.792416e-02	0.0	6.822329e-01	-3.880193e-02	0.0	6.690836e-01	-4.033193e-02	0.0	6.557782e-01	-4.195316e-02	0.0	6.426174e-01	-4.525073e-02	0.0	6.293133e-01	-4.858418e-02	0.0	6.159431e-01	-5.219125e-02	0.0	6.025290e-01	-5.610516e-02	0.0	5.890098e-01	-6.004974e-02	0.0	5.752296e-01	-6.337897e-02	0.0	5.613472e-01	-6.664112e-02	0.0	5.472946e-01	-6.929555e-02	0.0	5.329890e-01	-7.076113e-02	0.0	5.186457e-01	-7.223056e-02	0.0	5.042150e-01	-7.242599e-02	0.0	4.897663e-01	-7.241995e-02	0.0	4.753298e-01	-7.218882e-02	0.0	4.609227e-01	-7.162137e-02	0.0	4.465533e-01	-7.105540e-02	0.0	4.322279e-01	-7.080230e-02	0.0	4.179693e-01	-7.057191e-02	0.0	4.037944e-01	-7.064512e-02	0.0	3.897176e-01	-7.105978e-02	0.0	3.757502e-01	-7.147122e-02	0.0	3.619200e-01	-7.222548e-02	0.0	3.482251e-01	-7.297407e-02	0.0	3.346784e-01	-7.372752e-02	0.0	3.212914e-01	-7.448440e-02	0.0	3.080743e-01	-7.522670e-02	0.0	2.950250e-01	-7.568229e-02	0.0	2.821662e-01	-7.613122e-02	0.0	2.695030e-01	-7.629691e-02	0.0	2.570442e-01	-7.620327e-02	0.0	2.448013e-01	-7.610567e-02	0.0	2.328122e-01	-7.523370e-02	0.0	2.210514e-01	-7.437834e-02	0.0	2.095816e-01	-7.305206e-02	0.0	1.984098e-01	-7.123826e-02	0.0	1.874783e-01	-6.946349e-02	0.0	1.769561e-01	-6.691962e-02	0.0	1.666888e-01	-6.437519e-02	0.0	1.567152e-01	-6.171366e-02	0.0	1.470821e-01	-5.877163e-02	0.0	1.376925e-01	-5.590394e-02	0.0	1.285914e-01	-5.296955e-02	0.0	1.197505e-01	-5.005736e-02	0.0	1.111502e-01	-4.722704e-02	0.0	1.027831e-01	-4.449775e-02	0.0	9.465491e-02	-4.184641e-02	0.0	8.675637e-02	-3.929542e-02	0.0	7.908640e-02	-3.684025e-02	0.0	7.164807e-02	-3.446239e-02	0.0	6.442804e-02	-3.219370e-02	0.0	5.743475e-02	-2.999626e-02	0.0	5.066003e-02	-2.788388e-02	0.0	4.410367e-02	-2.584405e-02	0.0	3.779538e-02	-2.377127e-02	0.0	3.170927e-02	-2.173154e-02	0.0	2.596455e-02	-1.939827e-02	0.0	2.050813e-02	-1.694898e-02	0.0	1.547785e-02	-1.409894e-02	0.0	1.088374e-02	-1.095493e-02	0.0	6.631865e-03	-7.661859e-03	0.0	2.932360e-03	-4.024845e-03	0.0	
CELLS 198	594
2	0	1	2	1	2	2	2	3	2	3	4	2	4	5	2	5	6	2	6	7	2	7	8	2	8	9	2	9	10	2	10	11	2	11	12	2	12	13	2	13	14	2	14	15	2	15	16	2	16	17	2	17	18	2	18	19	2	19	20	2	20	21	2	21	22	2	22	23	2	23	24	2	24	25	2	25	26	2	26	27	2	27	28	2	28	29	2	29	30	2	30	31	2	31	32	2	32	33	2	33	34	2	34	35	2	35	36	2	36	37	2	37	38	2	38	39	2	39	40	2	40	41	2	41	42	2	42	43	2	43	44	2	44	45	2	45	46	2	46	47	2	47	48	2	48	49	2	49	50	2	50	51	2	51	52	2	52	53	2	53	54	2	54	55	2	55	56	2	56	57	2	57	58	2	58	59	2	59	60	2	60	61	2	61	62	2	62	63	2	63	64	2	64	65	2	65	66	2	66	67	2	67	68	2	68	69	2	69	70	2	70	71	2	128	129	2	129	130	2	130	131	2	131	132	2	132	133	2	133	134	2	134	135	2	135	136	2	136	137	2	137	138	2	138	139	2	139	140	2	140	141	2	141	142	2	142	143	2	143	144	2	144	145	2	145	146	2	146	147	2	147	148	2	148	149	2	149	150	2	150	151	2	151	152	2	152	153	2	153	154	2	154	155	2	155	156	2	156	157	2	157	158	2	158	159	2	159	160	2	160	161	2	161	162	2	162	163	2	163	164	2	164	165	2	165	166	2	166	167	2	167	168	2	168	169	2	169	170	2	170	171	2	171	172	2	172	173	2	173	174	2	174	175	2	175	176	2	176	177	2	177	178	2	178	179	2	179	180	2	180	181	2	181	182	2	182	183	2	183	184	2	184	185	2	185	186	2	186	187	2	187	188	2	188	189	2	189	190	2	190	191	2	191	192	2	192	193	2	193	194	2	194	195	2	195	196	2	196	197	2	197	0	2	71	72	2	72	73	2	73	74	2	74	75	2	75	76	2	76	77	2	77	78	2	78	79	2	79	80	2	80	81	2	81	82	2	82	83	2	83	84	2	84	85	2	85	86	2	86	87	2	87	88	2	88	89	2	89	90	2	90	91	2	91	92	2	92	93	2	93	94	2	94	95	2	95	96	2	96	97	2	97	98	2	98	99	2	99	100	2	100	101	2	101	102	2	102	103	2	103	104	2	104	105	2	105	106	2	106	107	2	107	108	2	108	109	2	109	110	2	110	111	2	111	112	2	112	113	2	113	114	2	114	115	2	115	116	2	116	117	2	117	118	2	118	119	2	119	120	2	120	121	2	121	122	2	122	123	2	123	124	2	124	125	2	125	126	2	126	127	2	127	128	
CELL_TYPES 198
3	3	3	3	3	3	3	3	3	3	3	3	3	3	3	3	3	3	3	3	3	3	3	3	3	3	3	3	3	3	3	3	3	3	3	3	3	3	3	3	3	3	3	3	3	3	3	3	3	3	3	3	3	3	3	3	3	3	3	3	3	3	3	3	3	3	3	3	3	3	3	3	3	3	3	3	3	3	3	3	3	3	3	3	3	3	3	3	3	3	3	3	3	3	3	3	3	3	3	3	3	3	3	3	3	3	3	3	3	3	3	3	3	3	3	3	3	3	3	3	3	3	3	3	3	3	3	3	3	3	3	3	3	3	3	3	3	3	3	3	3	3	3	3	3	3	3	3	3	3	3	3	3	3	3	3	3	3	3	3	3	3	3	3	3	3	3	3	3	3	3	3	3	3	3	3	3	3	3	3	3	3	3	3	3	3	3	3	3	3	3	3	3	3	3	3	3	3	
POINT_DATA 198

SCALARS Density double 1
LOOKUP_TABLE default
1.523903e+00	1.197946e+00	1.171027e+00	1.048192e+00	9.932294e-01	9.576719e-01	9.819452e-01	1.002914e+00	1.027709e+00	1.031244e+00	1.025130e+00	1.011539e+00	9.971286e-01	9.659213e-01	9.248771e-01	8.668205e-01	7.977872e-01	7.397834e-01	6.887252e-01	6.578712e-01	7.212835e-01	1.000697e+00	1.195054e+00	1.244967e+00	1.255405e+00	1.260434e+00	1.277060e+00	1.261259e+00	1.255694e+00	1.238242e+00	1.190392e+00	1.145816e+00	1.101226e+00	1.024588e+00	9.440062e-01	9.026977e-01	7.847104e-01	6.919778e-01	6.571255e-01	6.085509e-01	5.895749e-01	5.935199e-01	6.150859e-01	7.833432e-01	1.067965e+00	1.153205e+00	1.171424e+00	1.167796e+00	1.131144e+00	1.117586e+00	1.087141e+00	1.038597e+00	1.000774e+00	9.590996e-01	9.130439e-01	9.056157e-01	9.058443e-01	9.313971e-01	9.892606e-01	1.024493e+00	1.057290e+00	1.082573e+00	1.104720e+00	1.129902e+00	1.147052e+00	1.162175e+00	1.178155e+00	1.189908e+00	1.199300e+00	1.210668e+00	1.213704e+00	1.219413e+00	1.220687e+00	1.212884e+00	1.210247e+00	1.201327e+00	1.193113e+00	1.187704e+00	1.179609e+00	1.180927e+00	1.184685e+00	1.186969e+00	1.197207e+00	1.201532e+00	1.210021e+00	1.217970e+00	1.224294e+00	1.232203e+00	1.238217e+00	1.244380e+00	1.250043e+00	1.255684e+00	1.261573e+00	1.267056e+00	1.273086e+00	1.279477e+00	1.285258e+00	1.296050e+00	1.301422e+00	1.282666e+00	1.407707e+00	1.385720e+00	1.394319e+00	1.394510e+00	1.398975e+00	1.401483e+00	1.404195e+00	1.407744e+00	1.410522e+00	1.414280e+00	1.417850e+00	1.421789e+00	1.429952e+00	1.430302e+00	1.441179e+00	1.444141e+00	1.441379e+00	1.449202e+00	1.437170e+00	1.436813e+00	1.425950e+00	1.389069e+00	1.361304e+00	1.319142e+00	1.255509e+00	1.202990e+00	1.107187e+00	1.074694e+00	1.112481e+00	1.141966e+00	1.205097e+00	1.265534e+00	1.298732e+00	1.339452e+00	1.371903e+00	1.366701e+00	1.389439e+00	1.384478e+00	1.349074e+00	1.330327e+00	1.293187e+00	1.242031e+00	1.187946e+00	1.056860e+00	8.892603e-01	8.642387e-01	8.937837e-01	9.593763e-01	1.046218e+00	1.090090e+00	1.141685e+00	1.195307e+00	1.222403e+00	1.241692e+00	1.259050e+00	1.256318e+00	1.254878e+00	1.247378e+00	1.227396e+00	1.213413e+00	1.193592e+00	1.164692e+00	1.143480e+00	1.121375e+00	1.085376e+00	1.036917e+00	9.701686e-01	9.562281e-01	9.667949e-01	9.771092e-01	1.023695e+00	1.044520e+00	1.088597e+00	1.153619e+00	1.180679e+00	1.221952e+00	1.259600e+00	1.286147e+00	1.316195e+00	1.340756e+00	1.360098e+00	1.376417e+00	1.391118e+00	1.403263e+00	1.415348e+00	1.425817e+00	1.434956e+00	1.444478e+00	1.449811e+00	1.458074e+00	1.461055e+00	1.470601e+00	1.488722e+00	1.507192e+00	1.551771e+00	1.589989e+00	1.607877e+00	1.681545e+00	
VECTORS Momentum double
1.545641e+01	2.093120e+02	0.0	1.643598e+02	2.017581e+02	0.0	2.117802e+02	2.008014e+02	0.0	2.487982e+02	1.685021e+02	0.0	2.724744e+02	1.472934e+02	0.0	2.826017e+02	1.202461e+02	0.0	2.924333e+02	1.106440e+02	0.0	2.959802e+02	1.002289e+02	0.0	2.988493e+02	9.592940e+01	0.0	3.011170e+02	9.079009e+01	0.0	3.034489e+02	8.661362e+01	0.0	3.056335e+02	8.186607e+01	0.0	3.084180e+02	7.845682e+01	0.0	3.098805e+02	7.233358e+01	0.0	3.102527e+02	6.490890e+01	0.0	3.081527e+02	5.295444e+01	0.0	3.018240e+02	3.670547e+01	0.0	2.940161e+02	2.302941e+01	0.0	2.860968e+02	1.138983e+01	0.0	2.764365e+02	5.147574e-01	0.0	2.750473e+02	-4.039644e+00	0.0	2.660879e+02	-3.493572e+00	0.0	2.556295e+02	-5.551837e+00	0.0	2.504790e+02	2.542783e+00	0.0	2.473987e+02	9.888840e+00	0.0	2.422920e+02	1.581779e+01	0.0	2.434157e+02	2.973647e+01	0.0	2.437660e+02	3.640747e+01	0.0	2.452888e+02	4.707184e+01	0.0	2.532908e+02	6.103259e+01	0.0	2.634726e+02	6.476467e+01	0.0	2.729956e+02	6.546716e+01	0.0	2.843719e+02	6.795688e+01	0.0	2.944366e+02	6.018196e+01	0.0	2.961828e+02	4.441648e+01	0.0	3.026996e+02	3.992113e+01	0.0	2.922889e+02	1.426883e+01	0.0	2.754102e+02	-7.764713e+00	0.0	2.709344e+02	-1.595173e+01	0.0	2.581919e+02	-2.702887e+01	0.0	2.541629e+02	-3.136763e+01	0.0	2.567538e+02	-3.207988e+01	0.0	2.554744e+02	-3.027453e+01	0.0	2.507593e+02	-2.565418e+01	0.0	2.495807e+02	-1.261088e+01	0.0	2.399620e+02	-8.408114e+00	0.0	2.405004e+02	3.880916e+00	0.0	2.480953e+02	1.655852e+01	0.0	2.503211e+02	1.764937e+01	0.0	2.563770e+02	2.233293e+01	0.0	2.649375e+02	2.490752e+01	0.0	2.717379e+02	2.004830e+01	0.0	2.774415e+02	1.554776e+01	0.0	2.825742e+02	9.308595e+00	0.0	2.814729e+02	-2.988777e+00	0.0	2.830062e+02	-9.204550e+00	0.0	2.825844e+02	-1.915697e+01	0.0	2.772367e+02	-2.920230e+01	0.0	2.758619e+02	-3.221230e+01	0.0	2.701575e+02	-3.739161e+01	0.0	2.649016e+02	-3.960332e+01	0.0	2.598459e+02	-4.174974e+01	0.0	2.534188e+02	-4.364755e+01	0.0	2.482138e+02	-4.283224e+01	0.0	2.430513e+02	-4.227361e+01	0.0	2.376072e+02	-4.155956e+01	0.0	2.327328e+02	-3.933190e+01	0.0	2.289654e+02	-3.705223e+01	0.0	2.245088e+02	-3.484721e+01	0.0	2.222191e+02	-3.054161e+01	0.0	2.197796e+02	-2.774850e+01	0.0	2.185320e+02	-2.288200e+01	0.0	2.208312e+02	-1.787225e+01	0.0	2.227638e+02	-1.603904e+01	0.0	2.255425e+02	-1.327129e+01	0.0	2.284753e+02	-1.281780e+01	0.0	2.313179e+02	-1.395005e+01	0.0	2.344807e+02	-1.550824e+01	0.0	2.356411e+02	-2.022207e+01	0.0	2.348950e+02	-2.386928e+01	0.0	2.339423e+02	-2.717544e+01	0.0	2.307661e+02	-3.130803e+01	0.0	2.282253e+02	-3.259846e+01	0.0	2.248555e+02	-3.498054e+01	0.0	2.214455e+02	-3.627272e+01	0.0	2.181973e+02	-3.688096e+01	0.0	2.146573e+02	-3.772994e+01	0.0	2.112897e+02	-3.757510e+01	0.0	2.081635e+02	-3.762287e+01	0.0	2.051269e+02	-3.747484e+01	0.0	2.019913e+02	-3.738403e+01	0.0	1.987373e+02	-3.727596e+01	0.0	1.954513e+02	-3.697152e+01	0.0	1.919344e+02	-3.672870e+01	0.0	1.883853e+02	-3.636961e+01	0.0	1.842950e+02	-3.593918e+01	0.0	1.791934e+02	-3.537061e+01	0.0	1.746013e+02	-3.467314e+01	0.0	1.650303e+02	-3.459152e+01	0.0	1.662085e+02	1.080466e-01	0.0	2.588251e+02	-1.269703e+01	0.0	2.493497e+02	-7.350684e+00	0.0	2.508088e+02	-5.684078e+00	0.0	2.479745e+02	-3.617965e+00	0.0	2.471793e+02	-2.015747e+00	0.0	2.455833e+02	-2.971381e-01	0.0	2.440608e+02	1.401311e+00	0.0	2.423939e+02	2.837742e+00	0.0	2.408404e+02	4.728106e+00	0.0	2.390331e+02	6.249964e+00	0.0	2.367414e+02	8.006480e+00	0.0	2.342001e+02	9.989011e+00	0.0	2.310067e+02	1.185047e+01	0.0	2.277601e+02	1.634161e+01	0.0	2.247245e+02	1.862548e+01	0.0	2.202292e+02	2.579089e+01	0.0	2.190300e+02	3.387258e+01	0.0	2.179810e+02	3.935968e+01	0.0	2.163225e+02	5.120704e+01	0.0	2.190739e+02	5.861576e+01	0.0	2.203064e+02	7.081618e+01	0.0	2.271601e+02	8.592371e+01	0.0	2.430987e+02	9.188531e+01	0.0	2.554370e+02	9.659798e+01	0.0	2.706318e+02	9.892436e+01	0.0	2.893501e+02	8.907645e+01	0.0	2.999858e+02	8.083953e+01	0.0	3.161469e+02	5.779734e+01	0.0	3.206107e+02	3.183042e+01	0.0	3.162505e+02	1.992680e+01	0.0	3.126051e+02	3.202203e+00	0.0	3.002765e+02	-3.646469e+00	0.0	2.871920e+02	-8.626014e-01	0.0	2.763388e+02	8.206772e-01	0.0	2.655291e+02	9.216022e+00	0.0	2.582107e+02	2.433800e+01	0.0	2.564650e+02	3.023062e+01	0.0	2.511329e+02	4.667466e+01	0.0	2.555620e+02	6.422122e+01	0.0	2.662360e+02	6.903376e+01	0.0	2.705428e+02	7.614824e+01	0.0	2.798056e+02	8.170576e+01	0.0	2.912326e+02	7.696971e+01	0.0	2.990450e+02	7.120845e+01	0.0	3.033621e+02	6.467878e+01	0.0	3.181533e+02	4.497312e+01	0.0	3.231834e+02	3.294441e+01	0.0	3.304158e+02	1.798991e+01	0.0	3.361795e+02	1.199104e+00	0.0	3.320271e+02	-2.516015e+00	0.0	3.307697e+02	-9.015493e+00	0.0	3.269154e+02	-1.274601e+01	0.0	3.210837e+02	-9.100389e+00	0.0	3.183168e+02	-5.396330e+00	0.0	3.163745e+02	-1.667777e+00	0.0	3.145335e+02	5.607097e+00	0.0	3.157210e+02	9.335471e+00	0.0	3.166293e+02	1.328343e+01	0.0	3.182677e+02	1.750498e+01	0.0	3.218638e+02	1.762563e+01	0.0	3.238205e+02	1.811900e+01	0.0	3.261485e+02	1.847862e+01	0.0	3.292547e+02	1.499456e+01	0.0	3.302597e+02	1.147047e+01	0.0	3.314424e+02	7.744928e+00	0.0	3.330183e+02	1.340935e+00	0.0	3.293212e+02	-1.891954e+00	0.0	3.312725e+02	-1.336882e+01	0.0	3.311485e+02	-2.378293e+01	0.0	3.286022e+02	-3.129433e+01	0.0	3.317386e+02	-4.632833e+01	0.0	3.276245e+02	-5.304975e+01	0.0	3.264431e+02	-6.601777e+01	0.0	3.221531e+02	-7.917217e+01	0.0	3.148983e+02	-8.088931e+01	0.0	3.098137e+02	-8.874892e+01	0.0	3.022089e+02	-9.240538e+01	0.0	2.952165e+02	-9.250079e+01	0.0	2.885868e+02	-9.401188e+01	0.0	2.816614e+02	-9.274073e+01	0.0	2.757471e+02	-9.031221e+01	0.0	2.704371e+02	-8.826733e+01	0.0	2.656884e+02	-8.627634e+01	0.0	2.612619e+02	-8.399177e+01	0.0	2.567934e+02	-8.215691e+01	0.0	2.524598e+02	-8.001913e+01	0.0	2.481300e+02	-7.796016e+01	0.0	2.440881e+02	-7.644121e+01	0.0	2.403193e+02	-7.481213e+01	0.0	2.356309e+02	-7.536348e+01	0.0	2.304600e+02	-7.638794e+01	0.0	2.226435e+02	-8.225582e+01	0.0	2.085483e+02	-8.901114e+01	0.0	1.868804e+02	-9.376594e+01	0.0	1.538293e+02	-9.571429e+01	0.0	1.105219e+02	-8.009918e+01	0.0	6.006236e+01	-5.038076e+01	0.0	-9.480400e+00	1.509825e+01	0.0	
SCALARS Energy double 1
LOOKUP_TABLE default
3.346039e+05	2.678630e+05	2.643399e+05	2.396175e+05	2.291911e+05	2.217515e+05	2.271676e+05	2.314020e+05	2.365635e+05	2.373386e+05	2.361877e+05	2.335018e+05	2.307477e+05	2.244461e+05	2.160880e+05	2.040910e+05	1.895624e+05	1.772255e+05	1.663621e+05	1.592604e+05	1.714046e+05	2.271211e+05	2.669753e+05	2.771843e+05	2.792238e+05	2.800205e+05	2.836709e+05	2.803980e+05	2.794075e+05	2.763574e+05	2.669832e+05	2.583084e+05	2.499021e+05	2.347851e+05	2.182917e+05	2.105123e+05	1.857629e+05	1.657344e+05	1.585181e+05	1.477913e+05	1.437466e+05	1.448260e+05	1.487594e+05	1.814637e+05	2.399531e+05	2.572266e+05	2.610913e+05	2.608120e+05	2.532537e+05	2.508261e+05	2.450631e+05	2.354428e+05	2.280507e+05	2.198971e+05	2.104007e+05	2.090400e+05	2.090933e+05	2.139029e+05	2.256709e+05	2.325444e+05	2.389780e+05	2.439075e+05	2.481213e+05	2.530527e+05	2.563303e+05	2.591821e+05	2.622506e+05	2.645029e+05	2.662296e+05	2.684831e+05	2.689807e+05	2.700986e+05	2.704633e+05	2.689019e+05	2.684802e+05	2.667475e+05	2.651693e+05	2.642082e+05	2.625848e+05	2.628401e+05	2.636001e+05	2.639339e+05	2.659692e+05	2.667218e+05	2.683506e+05	2.698735e+05	2.710438e+05	2.725556e+05	2.736832e+05	2.748486e+05	2.759076e+05	2.769600e+05	2.780660e+05	2.790801e+05	2.802129e+05	2.814046e+05	2.824299e+05	2.845550e+05	2.853481e+05	2.812365e+05	3.120908e+05	3.069233e+05	3.088212e+05	3.087149e+05	3.096220e+05	3.100741e+05	3.105747e+05	3.112474e+05	3.117636e+05	3.124769e+05	3.131293e+05	3.138512e+05	3.154455e+05	3.153839e+05	3.175752e+05	3.180409e+05	3.174469e+05	3.191115e+05	3.165777e+05	3.167016e+05	3.145972e+05	3.073005e+05	3.023008e+05	2.941465e+05	2.817177e+05	2.717656e+05	2.525597e+05	2.467888e+05	2.545831e+05	2.602087e+05	2.729236e+05	2.846241e+05	2.907164e+05	2.986187e+05	3.048622e+05	3.034145e+05	3.081711e+05	3.069710e+05	2.999138e+05	2.966190e+05	2.891675e+05	2.791204e+05	2.685308e+05	2.419648e+05	2.083017e+05	2.044854e+05	2.106942e+05	2.243559e+05	2.423157e+05	2.508458e+05	2.612867e+05	2.720074e+05	2.771490e+05	2.809350e+05	2.843956e+05	2.836990e+05	2.834912e+05	2.820090e+05	2.779991e+05	2.753746e+05	2.714327e+05	2.656649e+05	2.615475e+05	2.570939e+05	2.498421e+05	2.401457e+05	2.263615e+05	2.237899e+05	2.259469e+05	2.278267e+05	2.376562e+05	2.415805e+05	2.506303e+05	2.638024e+05	2.688326e+05	2.771355e+05	2.844842e+05	2.895454e+05	2.954294e+05	3.001264e+05	3.037947e+05	3.068899e+05	3.096921e+05	3.119796e+05	3.142704e+05	3.162310e+05	3.179199e+05	3.197206e+05	3.206491e+05	3.221952e+05	3.226088e+05	3.243879e+05	3.277789e+05	3.309942e+05	3.395398e+05	3.464800e+05	3.492313e+05	3.646879e+05	
SCALARS Pressure double 1
LOOKUP_TABLE default
1.280603e+05	9.583909e+04	9.118940e+04	7.861855e+04	7.235812e+04	6.900226e+04	7.095568e+04	7.308753e+04	7.545395e+04	7.575195e+04	7.504668e+04	7.360636e+04	7.198533e+04	6.881231e+04	6.470910e+04	5.907988e+04	5.264960e+04	4.737633e+04	4.273821e+04	4.047245e+04	4.758055e+04	7.669530e+04	9.584881e+04	1.007937e+05	1.019231e+05	1.026534e+05	1.040506e+05	1.025264e+05	1.018271e+05	9.957882e+04	9.442552e+04	8.956677e+04	8.443531e+04	7.628457e+04	6.831317e+04	6.355110e+04	5.247893e+04	4.435343e+04	4.098841e+04	3.696765e+04	3.525119e+04	3.536952e+04	3.798361e+04	5.636310e+04	8.428620e+04	9.289200e+04	9.455871e+04	9.373638e+04	9.016723e+04	8.847846e+04	8.499800e+04	7.988026e+04	7.578912e+04	7.129013e+04	6.680385e+04	6.590931e+04	6.592544e+04	6.887376e+04	7.467339e+04	7.849678e+04	8.202041e+04	8.476701e+04	8.727696e+04	8.999096e+04	9.192039e+04	9.365985e+04	9.544281e+04	9.675879e+04	9.788375e+04	9.908147e+04	9.950578e+04	1.001209e+05	1.001430e+05	9.933559e+04	9.895650e+04	9.798110e+04	9.706564e+04	9.638440e+04	9.555017e+04	9.569510e+04	9.607596e+04	9.643548e+04	9.750875e+04	9.806912e+04	9.901745e+04	9.990810e+04	1.006577e+05	1.015470e+05	1.022455e+05	1.029510e+05	1.036116e+05	1.042718e+05	1.049536e+05	1.056042e+05	1.063021e+05	1.070508e+05	1.077806e+05	1.089321e+05	1.097699e+05	1.081871e+05	1.152958e+05	1.137878e+05	1.145008e+05	1.146650e+05	1.151136e+05	1.154229e+05	1.157456e+05	1.161504e+05	1.164778e+05	1.169052e+05	1.173368e+05	1.178108e+05	1.186948e+05	1.188625e+05	1.199736e+05	1.204073e+05	1.201628e+05	1.208733e+05	1.197540e+05	1.195219e+05	1.183281e+05	1.144275e+05	1.109975e+05	1.063514e+05	9.946094e+04	9.346788e+04	8.358752e+04	7.949342e+04	8.317146e+04	8.649778e+04	9.294962e+04	9.959806e+04	1.035849e+05	1.080452e+05	1.116540e+05	1.115224e+05	1.136691e+05	1.133630e+05	1.096716e+05	1.072749e+05	1.034504e+05	9.796622e+04	9.213543e+04	7.890301e+04	6.168203e+04	5.790165e+04	6.066283e+04	6.691538e+04	7.532122e+04	8.011094e+04	8.533426e+04	9.089357e+04	9.397850e+04	9.604875e+04	9.785809e+04	9.772516e+04	9.749583e+04	9.670093e+04	9.464413e+04	9.302343e+04	9.094763e+04	8.794108e+04	8.561847e+04	8.336095e+04	7.968320e+04	7.466735e+04	6.818640e+04	6.652557e+04	6.757664e+04	6.882839e+04	7.314250e+04	7.554076e+04	7.987295e+04	8.644172e+04	8.962740e+04	9.385502e+04	9.793642e+04	1.009351e+05	1.041738e+05	1.069335e+05	1.091375e+05	1.109968e+05	1.126580e+05	1.140579e+05	1.154361e+05	1.166540e+05	1.177396e+05	1.188300e+05	1.195206e+05	1.204832e+05	1.209744e+05	1.220935e+05	1.242042e+05	1.265966e+05	1.315853e+05	1.362485e+05	1.389281e+05	1.458374e+05	
SCALARS Temperature double 1
LOOKUP_TABLE default
2.927437e+02	2.786993e+02	2.712739e+02	2.612851e+02	2.537862e+02	2.510018e+02	2.517273e+02	2.538691e+02	2.557656e+02	2.558956e+02	2.550251e+02	2.534912e+02	2.514914e+02	2.481731e+02	2.437315e+02	2.374328e+02	2.298997e+02	2.230936e+02	2.161726e+02	2.143132e+02	2.298020e+02	2.669910e+02	2.794020e+02	2.820369e+02	2.828260e+02	2.837158e+02	2.838334e+02	2.831794e+02	2.824945e+02	2.801508e+02	2.763311e+02	2.723093e+02	2.671026e+02	2.593689e+02	2.520925e+02	2.452512e+02	2.329732e+02	2.232880e+02	2.172916e+02	2.116193e+02	2.082884e+02	2.075985e+02	2.151250e+02	2.506532e+02	2.749348e+02	2.806093e+02	2.812016e+02	2.796222e+02	2.776905e+02	2.757953e+02	2.723663e+02	2.679309e+02	2.638160e+02	2.589381e+02	2.548826e+02	2.535322e+02	2.535303e+02	2.576020e+02	2.629575e+02	2.669150e+02	2.702453e+02	2.727721e+02	2.752186e+02	2.774524e+02	2.791637e+02	2.807451e+02	2.822093e+02	2.832745e+02	2.843236e+02	2.851003e+02	2.856050e+02	2.860253e+02	2.857898e+02	2.853092e+02	2.848399e+02	2.841263e+02	2.834093e+02	2.827020e+02	2.821784e+02	2.822909e+02	2.825154e+02	2.830270e+02	2.837296e+02	2.843330e+02	2.850686e+02	2.857554e+02	2.864124e+02	2.870882e+02	2.876589e+02	2.882093e+02	2.887444e+02	2.892790e+02	2.898113e+02	2.903460e+02	2.908804e+02	2.914659e+02	2.921330e+02	2.927955e+02	2.938296e+02	2.938274e+02	2.853195e+02	2.860558e+02	2.860729e+02	2.864440e+02	2.866467e+02	2.869025e+02	2.871492e+02	2.874270e+02	2.876693e+02	2.879579e+02	2.882932e+02	2.886559e+02	2.891616e+02	2.894995e+02	2.900002e+02	2.904515e+02	2.904171e+02	2.905572e+02	2.902768e+02	2.897859e+02	2.890773e+02	2.869704e+02	2.840459e+02	2.808548e+02	2.759708e+02	2.706642e+02	2.629971e+02	2.576777e+02	2.604426e+02	2.638651e+02	2.686928e+02	2.741621e+02	2.778481e+02	2.810017e+02	2.835184e+02	2.842621e+02	2.849926e+02	2.852435e+02	2.831970e+02	2.809116e+02	2.786769e+02	2.747731e+02	2.701843e+02	2.600797e+02	2.416352e+02	2.333929e+02	2.364398e+02	2.429782e+02	2.507987e+02	2.560116e+02	2.603800e+02	2.649013e+02	2.678208e+02	2.694686e+02	2.707597e+02	2.709800e+02	2.706542e+02	2.700617e+02	2.686207e+02	2.670632e+02	2.654396e+02	2.630335e+02	2.608371e+02	2.589656e+02	2.557508e+02	2.508517e+02	2.448392e+02	2.423581e+02	2.434964e+02	2.453889e+02	2.489027e+02	2.519388e+02	2.556013e+02	2.610307e+02	2.644473e+02	2.675677e+02	2.708582e+02	2.733895e+02	2.757201e+02	2.778398e+02	2.795337e+02	2.809254e+02	2.821164e+02	2.831501e+02	2.841245e+02	2.850139e+02	2.858343e+02	2.865796e+02	2.871848e+02	2.878573e+02	2.884413e+02	2.892199e+02	2.906385e+02	2.926064e+02	2.953998e+02	2.985161e+02	3.010006e+02	3.021277e+02	
SCALARS Mach double 1
LOOKUP_TABLE default
4.015366e-01	6.490917e-01	7.547949e-01	8.846702e-01	9.764771e-01	1.009728e+00	1.001101e+00	9.754812e-01	9.525931e-01	9.510164e-01	9.615541e-01	9.800182e-01	1.003908e+00	1.043150e+00	1.095038e+00	1.167716e+00	1.253824e+00	1.331381e+00	1.410463e+00	1.431798e+00	1.254938e+00	8.118260e-01	6.385021e-01	5.976322e-01	5.849945e-01	5.704950e-01	5.685564e-01	5.792680e-01	5.903280e-01	6.270823e-01	6.839454e-01	7.406325e-01	8.103677e-01	9.084948e-01	9.967483e-01	1.077357e+00	1.218759e+00	1.329165e+00	1.397645e+00	1.462804e+00	1.501323e+00	1.509331e+00	1.422478e+00	1.013866e+00	7.039533e-01	6.200153e-01	6.108020e-01	6.351585e-01	6.640899e-01	6.916675e-01	7.398489e-01	7.995059e-01	8.527403e-01	9.138134e-01	9.632754e-01	9.795265e-01	9.795500e-01	9.302259e-01	8.636351e-01	8.128171e-01	7.687099e-01	7.342505e-01	6.999174e-01	6.675961e-01	6.421078e-01	6.179120e-01	5.948890e-01	5.777199e-01	5.604276e-01	5.473588e-01	5.387372e-01	5.314729e-01	5.355520e-01	5.438025e-01	5.517672e-01	5.637101e-01	5.755193e-01	5.869936e-01	5.953818e-01	5.935865e-01	5.899925e-01	5.817420e-01	5.702679e-01	5.602714e-01	5.478983e-01	5.361467e-01	5.247137e-01	5.127443e-01	5.024581e-01	4.923750e-01	4.824091e-01	4.722800e-01	4.620125e-01	4.515022e-01	4.407877e-01	4.287883e-01	4.147558e-01	4.003993e-01	3.770386e-01	3.770896e-01	5.436277e-01	5.309429e-01	5.306461e-01	5.241589e-01	5.205879e-01	5.160541e-01	5.116527e-01	5.066583e-01	5.022703e-01	4.970016e-01	4.908243e-01	4.840694e-01	4.745203e-01	4.680500e-01	4.583224e-01	4.494046e-01	4.500882e-01	4.472926e-01	4.528742e-01	4.625055e-01	4.761227e-01	5.148469e-01	5.650437e-01	6.162084e-01	6.891455e-01	7.630609e-01	8.631339e-01	9.292998e-01	8.951801e-01	8.521156e-01	7.894418e-01	7.148698e-01	6.617625e-01	6.139224e-01	5.737342e-01	5.614528e-01	5.491860e-01	5.449230e-01	5.789810e-01	6.153248e-01	6.494277e-01	7.062472e-01	7.695298e-01	8.996904e-01	1.119326e+00	1.213965e+00	1.179104e+00	1.103779e+00	1.012139e+00	9.496089e-01	8.959591e-01	8.388703e-01	8.009531e-01	7.791212e-01	7.617694e-01	7.587854e-01	7.631948e-01	7.711779e-01	7.903971e-01	8.108823e-01	8.319465e-01	8.626724e-01	8.902663e-01	9.134748e-01	9.527723e-01	1.011510e+00	1.082157e+00	1.110963e+00	1.097768e+00	1.075751e+00	1.034561e+00	9.985810e-01	9.545843e-01	8.878506e-01	8.446860e-01	8.042781e-01	7.604362e-01	7.256822e-01	6.927475e-01	6.618850e-01	6.365042e-01	6.151110e-01	5.963687e-01	5.797449e-01	5.637397e-01	5.488252e-01	5.347828e-01	5.217715e-01	5.110143e-01	4.988433e-01	4.880749e-01	4.734083e-01	4.456640e-01	4.045409e-01	3.388588e-01	2.478511e-01	1.401847e-01	3.042623e-02	
SCALARS Pressure_Coefficient double 1
LOOKUP_TABLE default