# vtk DataFile Version 3.0
vtk output
ASCII
DATASET UNSTRUCTURED_GRID
POINTS 1840 double
1.000000e+02	0.000000e+00	0.0	9.917900e+01	1.278772e+01	0.0	9.672949e+01	2.536546e+01	0.0	9.269168e+01	3.752670e+01	0.0	8.713187e+01	4.907176e+01	0.0	8.014136e+01	5.981105e+01	0.0	7.183494e+01	6.956826e+01	0.0	6.234898e+01	7.818315e+01	0.0	5.183926e+01	8.551428e+01	0.0	4.047833e+01	9.144126e+01	0.0	2.845276e+01	9.586679e+01	0.0	1.595999e+01	9.871818e+01	0.0	3.205158e+00	9.994862e+01	0.0	-9.602303e+00	9.953791e+01	0.0	-2.225209e+01	9.749279e+01	0.0	-3.453651e+01	9.384684e+01	0.0	-4.625383e+01	8.865993e+01	0.0	-5.721167e+01	8.201723e+01	0.0	-6.723009e+01	7.402780e+01	0.0	-7.614460e+01	6.482284e+01	0.0	-8.380881e+01	5.455349e+01	0.0	-9.009689e+01	4.338837e+01	0.0	-9.490557e+01	3.151082e+01	0.0	-9.815592e+01	1.911586e+01	0.0	-9.979454e+01	6.407022e+00	0.0	-9.979454e+01	-6.407022e+00	0.0	-9.815592e+01	-1.911586e+01	0.0	-9.490557e+01	-3.151082e+01	0.0	-9.009689e+01	-4.338837e+01	0.0	-8.380881e+01	-5.455349e+01	0.0	-7.614460e+01	-6.482284e+01	0.0	-6.723009e+01	-7.402780e+01	0.0	-5.721167e+01	-8.201723e+01	0.0	-4.625383e+01	-8.865993e+01	0.0	-3.453651e+01	-9.384684e+01	0.0	-2.225209e+01	-9.749279e+01	0.0	-9.602303e+00	-9.953791e+01	0.0	3.205158e+00	-9.994862e+01	0.0	1.595999e+01	-9.871818e+01	0.0	2.845276e+01	-9.586679e+01	0.0	4.047833e+01	-9.144126e+01	0.0	5.183926e+01	-8.551428e+01	0.0	6.234898e+01	-7.818315e+01	0.0	7.183494e+01	-6.956826e+01	0.0	8.014136e+01	-5.981105e+01	0.0	8.713187e+01	-4.907176e+01	0.0	9.269168e+01	-3.752670e+01	0.0	9.672949e+01	-2.536546e+01	0.0	9.917900e+01	-1.278772e+01	0.0	0.000000e+00	0.000000e+00	0.0	3.007745e-03	3.994180e-03	0.0	6.128369e-03	8.138260e-03	0.0	1.045355e-02	1.131817e-02	0.0	1.499727e-02	1.455361e-02	0.0	2.023923e-02	1.698469e-02	0.0	2.568469e-02	1.947411e-02	0.0	3.154267e-02	2.150485e-02	0.0	3.762015e-02	2.355791e-02	0.0	4.404690e-02	2.521905e-02	0.0	5.073447e-02	2.672136e-02	0.0	5.776163e-02	2.768672e-02	0.0	6.505692e-02	2.805582e-02	0.0	7.261940e-02	2.790760e-02	0.0	8.034012e-02	2.680789e-02	0.0	8.830173e-02	2.563419e-02	0.0	9.652891e-02	2.457829e-02	0.0	1.050411e-01	2.426884e-02	0.0	1.138316e-01	2.452913e-02	0.0	1.227196e-01	2.600032e-02	0.0	1.317832e-01	2.808520e-02	0.0	1.409634e-01	3.068195e-02	0.0	1.502266e-01	3.390751e-02	0.0	1.597296e-01	3.721656e-02	0.0	1.693790e-01	4.086250e-02	0.0	1.792560e-01	4.461809e-02	0.0	1.893887e-01	4.839998e-02	0.0	1.998194e-01	5.208464e-02	0.0	2.104790e-01	5.585019e-02	0.0	2.214818e-01	5.932723e-02	0.0	2.327954e-01	6.260060e-02	0.0	2.443283e-01	6.593741e-02	0.0	2.562872e-01	6.848107e-02	0.0	2.684671e-01	7.102602e-02	0.0	2.809225e-01	7.316400e-02	0.0	2.936888e-01	7.462236e-02	0.0	3.066439e-01	7.610227e-02	0.0	3.198519e-01	7.641883e-02	0.0	3.332405e-01	7.656593e-02	0.0	3.467738e-01	7.627185e-02	0.0	3.604315e-01	7.525675e-02	0.0	3.742239e-01	7.423165e-02	0.0	3.880586e-01	7.243940e-02	0.0	4.019920e-01	7.054371e-02	0.0	4.159859e-01	6.841560e-02	0.0	4.300083e-01	6.594284e-02	0.0	4.440969e-01	6.345843e-02	0.0	4.581950e-01	6.073740e-02	0.0	4.723249e-01	5.798165e-02	0.0	4.864807e-01	5.524048e-02	0.0	5.006499e-01	5.252881e-02	0.0	5.148117e-01	4.981856e-02	0.0	5.290063e-01	4.742136e-02	0.0	5.431722e-01	4.507753e-02	0.0	5.573179e-01	4.296325e-02	0.0	5.714530e-01	4.124711e-02	0.0	5.855071e-01	3.954079e-02	0.0	5.995235e-01	3.843560e-02	0.0	6.134400e-01	3.743111e-02	0.0	6.272467e-01	3.670198e-02	0.0	6.409395e-01	3.643633e-02	0.0	6.544852e-01	3.617354e-02	0.0	6.678669e-01	3.654773e-02	0.0	6.810781e-01	3.701674e-02	0.0	6.941021e-01	3.761759e-02	0.0	7.069232e-01	3.847000e-02	0.0	7.195457e-01	3.930920e-02	0.0	7.319688e-01	4.000903e-02	0.0	7.441788e-01	4.067131e-02	0.0	7.561732e-01	4.104050e-02	0.0	7.679502e-01	4.091467e-02	0.0	7.794934e-01	4.079135e-02	0.0	7.907281e-01	3.953362e-02	0.0	8.017210e-01	3.829610e-02	0.0	8.123795e-01	3.649526e-02	0.0	8.227587e-01	3.451207e-02	0.0	8.328589e-01	3.242180e-02	0.0	8.426770e-01	3.021718e-02	0.0	8.522528e-01	2.809295e-02	0.0	8.616027e-01	2.612628e-02	0.0	8.707038e-01	2.421192e-02	0.0	8.795849e-01	2.249001e-02	0.0	8.882250e-01	2.085013e-02	0.0	8.966240e-01	1.928636e-02	0.0	9.047896e-01	1.782854e-02	0.0	9.127125e-01	1.641404e-02	0.0	9.203971e-01	1.505126e-02	0.0	9.278452e-01	1.373250e-02	0.0	9.350577e-01	1.244380e-02	0.0	9.420365e-01	1.117554e-02	0.0	9.487894e-01	9.948044e-03	0.0	9.553147e-01	8.730458e-03	0.0	9.616226e-01	7.553451e-03	0.0	9.677130e-01	6.392995e-03	0.0	9.735943e-01	5.268065e-03	0.0	9.792674e-01	4.159312e-03	0.0	9.847400e-01	3.080551e-03	0.0	9.900156e-01	2.023969e-03	0.0	9.950986e-01	9.872324e-04	0.0	1.000000e+00	0.000000e+00	0.0	9.950063e-01	2.455834e-04	0.0	9.898212e-01	4.425924e-04	0.0	9.844404e-01	5.870106e-04	0.0	9.788595e-01	6.864981e-04	0.0	9.730743e-01	7.613569e-04	0.0	9.670795e-01	7.783901e-04	0.0	9.608711e-01	7.721492e-04	0.0	9.544444e-01	7.006017e-04	0.0	9.477950e-01	6.120232e-04	0.0	9.409198e-01	4.280697e-04	0.0	9.338130e-01	2.379185e-04	0.0	9.264742e-01	-6.236721e-05	0.0	9.188969e-01	-3.945322e-04	0.0	9.110808e-01	-8.067250e-04	0.0	9.030248e-01	-1.341396e-03	0.0	8.947204e-01	-1.892557e-03	0.0	8.861851e-01	-2.704019e-03	0.0	8.773994e-01	-3.565038e-03	0.0	8.683800e-01	-4.620897e-03	0.0	8.591308e-01	-5.916125e-03	0.0	8.496319e-01	-7.277727e-03	0.0	8.399333e-01	-9.020353e-03	0.0	8.299818e-01	-1.080843e-02	0.0	8.197755e-01	-1.262662e-02	0.0	8.093180e-01	-1.448585e-02	0.0	7.985709e-01	-1.612540e-02	0.0	7.875455e-01	-1.759969e-02	0.0	7.762541e-01	-1.888393e-02	0.0	7.646675e-01	-1.964299e-02	0.0	7.528443e-01	-2.041754e-02	0.0	7.407723e-01	-2.084459e-02	0.0	7.284737e-01	-2.124599e-02	0.0	7.159618e-01	-2.176880e-02	0.0	7.032457e-01	-2.243889e-02	0.0	6.903279e-01	-2.311961e-02	0.0	6.772857e-01	-2.461029e-02	0.0	6.640656e-01	-2.616716e-02	0.0	6.507455e-01	-2.819367e-02	0.0	6.373649e-01	-3.086792e-02	0.0	6.238378e-01	-3.357148e-02	0.0	6.103264e-01	-3.695901e-02	0.0	5.967155e-01	-4.046834e-02	0.0	5.830332e-01	-4.413675e-02	0.0	5.693338e-01	-4.810966e-02	0.0	5.555548e-01	-5.210563e-02	0.0	5.417314e-01	-5.619244e-02	0.0	5.278636e-01	-6.031760e-02	0.0	5.139456e-01	-6.440648e-02	0.0	4.999497e-01	-6.830823e-02	0.0	4.859464e-01	-7.221203e-02	0.0	4.718496e-01	-7.571932e-02	0.0	4.577219e-01	-7.901285e-02	0.0	4.436038e-01	-8.215678e-02	0.0	4.293702e-01	-8.443598e-02	0.0	4.152039e-01	-8.670440e-02	0.0	4.010254e-01	-8.814909e-02	0.0	3.868953e-01	-8.916991e-02	0.0	3.728689e-01	-8.993135e-02	0.0	3.589392e-01	-8.969030e-02	0.0	3.451466e-01	-8.945162e-02	0.0	3.315617e-01	-8.829443e-02	0.0	3.181576e-01	-8.682920e-02	0.0	3.049661e-01	-8.510956e-02	0.0	2.920743e-01	-8.262808e-02	0.0	2.793717e-01	-8.018305e-02	0.0	2.669238e-01	-7.750548e-02	0.0	2.547018e-01	-7.477458e-02	0.0	2.426771e-01	-7.216759e-02	0.0	2.308035e-01	-6.994355e-02	0.0	2.191575e-01	-6.776213e-02	0.0	2.076421e-01	-6.638703e-02	0.0	1.963106e-01	-6.545694e-02	0.0	1.852194e-01	-6.467567e-02	0.0	1.743455e-01	-6.471080e-02	0.0	1.637241e-01	-6.474511e-02	0.0	1.533573e-01	-6.471293e-02	0.0	1.432466e-01	-6.464584e-02	0.0	1.334076e-01	-6.437121e-02	0.0	1.238966e-01	-6.309236e-02	0.0	1.146405e-01	-6.184777e-02	0.0	1.059267e-01	-5.941769e-02	0.0	9.757619e-02	-5.655450e-02	0.0	8.954842e-02	-5.357699e-02	0.0	8.211947e-02	-4.982497e-02	0.0	7.491279e-02	-4.618520e-02	0.0	6.806935e-02	-4.239312e-02	0.0	6.152743e-02	-3.855532e-02	0.0	5.518489e-02	-3.485118e-02	0.0	4.899434e-02	-3.135546e-02	0.0	4.300557e-02	-2.797368e-02	0.0	3.710559e-02	-2.490642e-02	0.0	3.139073e-02	-2.196577e-02	0.0	2.582807e-02	-1.920849e-02	0.0	2.047374e-02	-1.651344e-02	0.0	1.536148e-02	-1.380412e-02	0.0	1.057976e-02	-1.093262e-02	0.0	6.145911e-03	-7.900490e-03	0.0	2.294066e-03	-4.423791e-03	0.0	9.537802e-01	-1.880722e-02	0.0	9.623179e-01	-2.063725e-02	0.0	9.593741e-01	-1.325183e-02	0.0	8.796130e+01	2.773167e+01	0.0	8.290311e+01	3.597742e+01	0.0	8.057455e+01	2.711154e+01	0.0	7.270440e+01	-1.199673e+01	0.0	7.480969e+01	-2.434972e+01	0.0	8.612389e+01	-1.548628e+01	0.0	9.085492e+01	-4.792078e+00	0.0	4.719538e+01	2.910056e+01	0.0	5.613983e+01	3.102008e+01	0.0	5.223651e+01	3.636816e+01	0.0	7.498824e+01	1.892140e+01	0.0	7.338109e+01	3.181206e+01	0.0	6.833072e+01	-3.522664e+01	0.0	7.526691e+01	-4.376982e+01	0.0	8.087227e+01	-3.616306e+01	0.0	8.624540e+01	-2.777824e+01	0.0	4.262076e+01	1.774027e+01	0.0	5.419052e+01	2.210868e+01	0.0	5.659629e+01	-6.330482e+01	0.0	5.548344e+01	-5.335678e+01	0.0	4.867069e+01	-6.393025e+01	0.0	6.818163e+01	5.995062e+01	0.0	7.225744e+01	5.079300e+01	0.0	5.771349e+01	6.595963e+01	0.0	4.614559e+01	-7.345958e+01	0.0	5.441404e+01	-7.217446e+01	0.0	6.603686e+01	-4.627592e+01	0.0	5.091203e+01	7.519620e+01	0.0	2.751294e+01	5.459339e+01	0.0	2.051036e+01	6.211625e+01	0.0	1.644270e+01	5.198326e+01	0.0	6.278830e+01	-6.717077e+01	0.0	2.527616e+01	7.290533e+01	0.0	3.867586e+01	7.848657e+01	0.0	2.440402e+01	8.650968e+01	0.0	3.732992e+01	-6.596711e+01	0.0	2.652970e+01	-7.322549e+01	0.0	3.881953e+01	-7.914758e+01	0.0	8.056019e+00	5.997002e+01	0.0	-1.898777e+00	5.455335e+01	0.0	5.582156e+00	4.842822e+01	0.0	8.610751e+00	8.914401e+01	0.0	1.148983e+01	7.729312e+01	0.0	1.821638e-01	5.123073e-02	0.0	1.728898e-01	4.940227e-02	0.0	5.391718e-01	-7.047236e-02	0.0	5.250843e-01	-7.218781e-02	0.0	6.030617e-01	-7.527959e-02	0.0	5.845279e-01	-8.357402e-02	0.0	6.034187e-01	-9.387273e-02	0.0	5.897714e-01	-1.091507e-01	0.0	5.926068e-01	-1.407109e-01	0.0	6.196252e-01	-1.152459e-01	0.0	9.624224e-01	1.146336e-01	0.0	9.448159e-01	8.028214e-02	0.0	9.710075e-01	7.750979e-02	0.0	8.842822e-01	-2.075383e-02	0.0	8.949577e-01	-1.758157e-02	0.0	8.893288e-01	-1.306520e-02	0.0	8.940104e-01	4.277572e-02	0.0	8.844615e-01	4.840941e-02	0.0	8.856419e-01	3.888343e-02	0.0	9.086513e-01	2.308461e-02	0.0	9.881051e-01	-5.430289e-02	0.0	9.748906e-01	-7.579921e-02	0.0	1.004608e+00	-7.545819e-02	0.0	1.126697e-01	-8.440886e-02	0.0	1.159083e-01	-7.433059e-02	0.0	1.055744e-01	-7.563273e-02	0.0	9.336279e-02	-7.504384e-02	0.0	1.011646e-01	-6.750836e-02	0.0	9.374997e-02	-6.601493e-02	0.0	8.738875e-01	-1.641596e-02	0.0	8.729220e-01	-2.652115e-02	0.0	8.645709e-01
[...]
POINT_DATA 1840

SCALARS Density double 1
LOOKUP_TABLE default
1.291149e+00	1.291296e+00	1.291956e+00	1.292278e+00	1.292172e+00	1.292100e+00	1.292088e+00	1.292063e+00	1.292027e+00	1.291996e+00	1.291978e+00	1.291972e+00	1.291988e+00	1.292032e+00	1.292094e+00	1.292156e+00	1.292205e+00	1.292243e+00	1.292271e+00	1.292290e+00	1.292304e+00	1.292314e+00	1.292321e+00	1.292328e+00	1.292333e+00	1.292340e+00	1.292348e+00	1.292358e+00	1.292370e+00	1.292386e+00	1.292407e+00	1.292434e+00	1.292469e+00	1.292507e+00	1.292553e+00	1.292603e+00	1.292654e+00	1.292685e+00	1.292685e+00	1.292657e+00	1.292610e+00	1.292553e+00	1.292500e+00	1.292449e+00	1.292391e+00	1.292347e+00	1.292399e+00	1.292267e+00	1.291696e+00	1.546458e+00	1.245004e+00	1.214449e+00	1.097991e+00	1.031845e+00	9.717781e-01	9.635172e-01	9.423765e-01	9.162294e-01	8.647212e-01	7.901430e-01	7.131542e-01	7.352816e-01	9.395275e-01	1.218913e+00	1.300572e+00	1.346214e+00	1.367026e+00	1.378434e+00	1.378496e+00	1.362975e+00	1.353014e+00	1.331538e+00	1.305240e+00	1.282169e+00	1.246779e+00	1.209316e+00	1.177277e+00	1.135352e+00	1.088257e+00	1.058201e+00	9.968492e-01	9.461713e-01	9.192303e-01	8.611064e-01	8.204517e-01	7.610113e-01	6.979450e-01	6.713969e-01	6.276192e-01	5.973499e-01	5.706288e-01	5.420980e-01	5.352908e-01	5.187221e-01	5.127266e-01	5.030928e-01	4.941757e-01	5.530463e-01	8.448764e-01	1.117502e+00	1.135831e+00	1.157565e+00	1.165543e+00	1.179858e+00	1.183209e+00	1.189844e+00	1.194142e+00	1.192040e+00	1.196219e+00	1.192057e+00	1.190478e+00	1.186688e+00	1.174914e+00	1.167483e+00	1.155083e+00	1.136802e+00	1.121531e+00	1.104195e+00	1.081065e+00	1.074170e+00	1.056840e+00	1.060749e+00	1.083291e+00	1.094152e+00	1.118959e+00	1.134990e+00	1.152132e+00	1.168161e+00	1.176808e+00	1.184700e+00	1.191442e+00	1.194538e+00	1.199489e+00	1.202876e+00	1.205666e+00	1.209040e+00	1.212117e+00	1.214993e+00	1.218591e+00	1.221781e+00	1.225030e+00	1.228748e+00	1.232154e+00	1.236087e+00	1.240033e+00	1.243818e+00	1.251478e+00	1.244822e+00	1.258637e+00	1.374897e+00	1.329486e+00	1.339175e+00	1.339688e+00	1.341345e+00	1.342703e+00	1.343909e+00	1.345766e+00	1.346354e+00	1.347751e+00	1.349098e+00	1.348950e+00	1.351437e+00	1.350306e+00	1.353131e+00	1.353278e+00	1.351060e+00	1.352700e+00	1.347028e+00	1.345777e+00	1.339932e+00	1.326171e+00	1.317375e+00	1.301541e+00	1.287899e+00	1.280199e+00	1.267339e+00	1.271643e+00	1.278619e+00	1.286481e+00	1.303836e+00	1.316206e+00	1.323507e+00	1.339416e+00	1.345322e+00	1.344821e+00	1.353057e+00	1.345613e+00	1.343169e+00	1.338573e+00	1.323603e+00	1.315854e+00	1.301996e+00	1.285451e+00	1.271456e+00	1.251257e+00	1.228338e+00	1.226083e+00	1.181582e+00	1.049356e+00	7.363777e-01	6.338393e-01	6.441559e-01	6.739981e-01	7.111440e-01	7.576059e-01	7.822598e-01	8.327223e-01	8.790007e-01	9.266182e-01	9.900212e-01	1.021737e+00	1.081502e+00	1.147277e+00	1.190148e+00	1.240320e+00	1.283458e+00	1.308640e+00	1.340878e+00	1.363929e+00	1.354217e+00	1.360553e+00	1.347401e+00	1.305107e+00	1.271806e+00	1.225972e+00	1.128818e+00	1.054296e+00	9.945953e-01	1.009246e+00	1.112819e+00	1.152432e+00	1.223165e+00	1.303648e+00	1.345543e+00	1.396612e+00	1.439044e+00	1.466192e+00	1.492318e+00	1.511023e+00	1.523607e+00	1.536754e+00	1.546991e+00	1.557892e+00	1.578311e+00	1.597893e+00	1.615611e+00	1.678680e+00	1.351658e+00	1.350542e+00	1.348766e+00	1.292109e+00	1.292157e+00	1.291990e+00	1.292021e+00	1.292306e+00	1.292025e+00	1.291533e+00	1.292062e+00	1.292094e+00	1.292019e+00	1.291924e+00	1.292136e+00	1.292349e+00	1.292340e+00	1.292310e+00	1.292312e+00	1.291943e+00	1.292046e+00	1.292474e+00	1.292439e+00	1.292515e+00	1.292063e+00	1.292083e+00	1.292035e+00	1.292549e+00	1.292509e+00	1.292363e+00	1.292014e+00	1.291836e+00	1.291817e+00	1.291712e+00	1.292465e+00	1.291893e+00	1.291964e+00	1.291942e+00	1.292586e+00	1.292657e+00	1.292599e+00	1.291752e+00	1.291713e+00	1.291610e+00	1.291940e+00	1.291886e+00	1.241724e+00	1.273596e+00	1.253165e+00	1.234723e+00	1.323272e+00	1.308426e+00	1.321726e+00	1.306555e+00	1.296646e+00	1.324793e+00	1.266581e+00	1.251744e+00	1.263097e+00	1.355218e+00	1.355979e+00	1.354032e+00	1.210285e+00	1.206501e+00	1.202139e+00	1.207529e+00	1.346105e+00	1.350340e+00	1.342158e+00	1.161648e+00	1.104866e+00	1.162287e+00	1.235041e+00	1.166185e+00	1.214961e+00	1.352304e+00	1.352991e+00	1.347714e+00	1.343802e+00	1.343990e+00	1.597884e+00	1.619247e+00	1.586201e+00	1.296810e+00	1.283983e+00	1.291657e+00	1.288395e+00	1.285245e+00	1.288344e+00	1.291753e+00	1.291536e+00	1.282685e+00	1.272931e+00	1.285978e+00	1.292401e+00	1.328387e+00	1.329799e+00	1.322318e+00	1.313561e+00	1.323721e+00	1.322323e+00	1.302013e+00	1.271958e+00	1.265357e+00	1.330740e+00	1.337448e+00	1.333768e+00	1.326660e+00	1.215090e+00	9.121061e-01	1.336183e+00	1.341959e+00	7.046965e-01	1.347687e+00	1.217915e+00	7.538525e-01	1.108241e+00	9.102854e-01	6.744608e-01	1.345297e+00	1.350106e+00	1.348427e+00	6.992767e-01	1.349909e+00	1.348346e+00	1.180226e+00	1.184757e+00	1.189301e+00	1.216698e+00	1.211103e+00	1.203454e+00	1.211854e+00	1.207744e+00	1.215396e+00	1.176473e+00	1.187718e+00	1.182844e+00	1.182674e+00	1.193509e+00	1.196489e+00	1.197609e+00	1.203046e+00	1.346301e+00	1.346538e+00	1.352330e+00	1.352923e+00	1.227664e+00	1.231494e+00	1.234740e+00	1.353766e+00	1.354706e+00	1.338182e+00	1.329375e+00	1.338636e+00	1.282148e+00	1.329477e+00	1.316683e+00	1.304277e+00	1.284807e+00	1.335546e+00	1.344767e+00	1.337939e+00	1.337930e+00	1.453926e+00	1.487928e+00	1.470528e+00	1.531308e+00	1.557492e+00	1.523696e+00	1.345167e+00	1.357423e+00	1.368224e+00	1.566560e+00	1.580808e+00	1.564871e+00	1.322760e+00	1.328150e+00	1.334161e+00	1.306952e+00	1.301381e+00	1.303510e+00	1.557771e+00	1.542577e+00	1.327936e+00	1.305372e+00	1.216856e+00	1.257915e+00	1.245874e+00	1.194808e+00	1.217501e+00	1.362961e+00	1.353898e+00	1.339750e+00	1.361614e+00	1.365818e+00	1.107246e+00	1.101341e+00	1.182962e+00	1.215927e+00	1.243278e+00	1.011168e+00	1.048301e+00	1.375086e+00	9.512305e-01	8.839313e-01	8.925276e-01	8.367320e-01	1.222647e+00	1.222679e+00	1.219282e+00	1.214125e+00	1.200903e+00	1.219835e+00	1.227892e+00	1.226310e+00	1.020271e+00	1.040819e+00	9.441835e-01	1.211001e+00	1.223341e+00	1.245991e+00	1.378747e+00	1.370967e+00	1.374316e+00	7.828302e-01	7.331506e-01	7.303824e-01	1.272655e+00	1.287018e+00	1.275196e+00	1.236308e+00	1.239524e+00	1.250284e+00	1.247037e+00	1.251355e+00	1.249755e+00	1.205694e+00	1.292849e+00	1.353054e+00	6.931640e-01	7.550545e-01	1.341071e+00	1.331452e+00	1.339578e+00	7.203531e-01	7.692925e-01	1.249055e+00	1.256079e+00	1.256199e+00	1.262092e+00	1.316986e+00	1.287594e+00	1.299419e+00	1.120822e+00	1.307768e+00	1.322387e+00	1.323287e+00	1.272488e+00	1.268365e+00	1.255800e+00	1.201639e+00	1.197117e+00	1.191762e+00	1.184883e+00	1.166088e+00	1.165536e+00	1.152822e+00	1.291825e+00	1.291628e+00	1.168561e+00	1.221653e+00	1.058071e+00	1.034254e+00	1.211833e+00	1.167732e+00	1.178935e+00	1.271625e+00	1.294461e+00	1.291153e+00	1.289896e+00	1.280089e+00	1.201142e+00	1.247559e+00	1.440527e+00	1.462221e+00	1.478214e+00	1.260893e+00	1.212421e+00	1.162605e+00	1.140464e+00	1.162663e+00	1.129131e+00	1.079708e+00	1.151643e+00	1.159220e+00	1.138502e+00	1.156664e+00	1.196259e+00	1.192422e+00	1.206005e+00	1.206650e+00	1.196685e+00	1.123354e+00	1.119183e+00	1.233590e+00	1.027609e+00	8.998769e-01	1.096599e+00	1.090517e+00	1.076812e+00	1.008524e+00	7.028236e-01	1.091926e+00	1.079757e+00	1.163869e+00	1.157372e+00	1.168055e+00	1.154718e+00	1.130682e+00	1.139492e+00	1.175064e+00	1.128306e+00	1.134896e+00	1.150090e+00	1.176199e+00	1.172050e+00	1.291283e+00	1.290674e+00	1.291603e+00	8.304953e-01	5.847891e-01	1.247100e+00	1.254726e+00	6.617682e-01	7.109854e-01	6.394130e-01	5.159393e-01	5.365781e-01	5.273785e-01	5.449025e-01	5.459660e-01	8.629402e-01	9.817411e-01	9.026969e-01	1.292070e+00	1.292031e+00	6.763657e-01	6.333136e-01	6.597663e-01	6.895902e-01	1.292035e+00	1.291984e+00	7.111047e-01	9.182592e-01	8.546469e-01	8.687268e-01	1.287872e+00	1.280973e+00	1.283451e+00	1.292118e+00	1.246924e+00	1.233214e+00	1.271150e+00	1.266134e+00	1.265937e+00	1.281520e+00	1.292183e+00	1.291855e+00	1.292295e+00	1.291572e+00	1.292271e+00	1.291815e+00	1.292014e+00	1.291595e+00	1.292282e+00	1.292264e+00	1.292287e+00	1.292278e+00	1.193015e+00	1.207536e+00	1.147335e+00	1.292765e+00	1.307979e+00	1.292331e+00	1.292322e+00	1.292341e+00	1.292313e+00	1.292303e+00	1.292349e+00	1.292367e+00	1.292369e+00	1.292388e+00	1.292453e+00	1.292458e+00	1.292425e+00	1.292416e+00	1.292391e+00	1.292547e+00	1.292425e+00	1.292417e+00	1.292503e+00	1.292445e+00	1.292496e+00	1.292501e+00	1.292490e+00	1.292892e+00	1.293250e+00	1.293501e+00	1.292557e+00	1.292532e+00	1.216677e+00	1.218477e+00	1.314505e+00	1.518627e+00	1.505493e+00	1.530044e+00	1.293048e+00	1.292970e+00	1.293159e+00	1.513772e+00	1.516403e+00	1.499360e+00	1.292679e+00	1.292593e+00	1.292626e+00	1.528523e+00	1.496781e+00	1.292752e+00	1.292711e+00	1.292732e+00	1.294586e+00	1.296330e+00	1.295751e+00	1.292691e+00	1.292700e+00	1.292659e+00	1.293240e+00	1.293619e+00	1.293724e+00	1.293430e+00	1.294065e+00	1.345621e+00	1.344269e+00	1.295033e+00	1.347380e+00	1.292858e+00	1.292858e+00	1.342010e+00	1.261095e+00	1.227155e+00	1.250129e+00	9.934829e-01	9.909490e-01	9.444866e-01	1.292644e+00	1.292688e+00	1.105114e+00	1.158180e+00	1.155295e+00	1.227882e+00	1.265609e+00	1.040026e+00	1.094132e+00	1.026771e+00	1.010327e+00	7.711291e-01	7.895663e-01	8.247202e-01	1.344401e+00	1.346238e+00	1.330461e+00	1.324313e+00	1.332373e+00	1.307767e+00	1.310686e+00	1.297296e+00	1.313912e+00	1.307417e+00	1.321846e+00	1.317961e+00	1.355546e+00	1.357203e+00	1.358806e+00	1.351958e+00	1.349837e+00	1.350247e+00	1.348842e+00	1.292343e+00	1.288538e+00	1.279053e+00	1.285988e+00	1.227194e+00	1.274535e+00	1.275158e+00	1.292147e+00	1.291896e+00	1.288734e+00	1.291195e+00	1.290937e+00	1.346439e+00	1.292911e+00	1.293643e+00	1.292949e+00	1.292669e+00	1.292745e+00	1.292812e+00	1.292074e+00	1.292145e+00	1.292163e+00	1.293005e+00	1.292633e+00	1.291969e+00	1.291934e+00	1.291632e+00	1.291415e+00	1.291594e+00	1.291910e+00	1.291660e+00	1.292421e+00	1.292370e+00	1.292408e+00	1.291631e+00	1.291731e+00	1.291958e+00	1.292916e+00	1.292777e+00	1.294380e+00	1.293953e+00	1.329909e+00	1.327000e+00	1.342681e+00	1.292346e+00	1.292248e+00	1.292310e+00	1.291868e+00	1.291472e+00	1.292057e+00	1.291853e+00	1.289449e+00	1.290611e+00	1.292584e+00	1.292448e+00	1.292501e+00	1.292637e+00	1.292554e+00	1.292600e+00	1.292365e+00	1.292394e+00	1.292367e+00	1.292348e+00	1.292360e+00	1.292330e+00	1.292266e+00	1.292302e+00	1.292255e+00	1.291976e+00	1.291956e+00	1.292723e+00	1.292104e+00	1.292060e+00	1.292017e+00	1.291964e+00	1.291949e+00	1.291992e+00	1.291584e+00	1.291518e+00	1.292244e+00	1.292341e+00	1.292541e+00	1.292658e+00	1.292446e+00	1.292416e+00	1.292109e+00	1.291903e+00	1.291836e+00	1.292348e+00	1.292074e+00	1.321416e+00	1.002403e+00	8.064389e-01	1.291379e+00	1.291810e+00	1.291873e+00	1.292261e+00	1.292382e+00	1.292888e+00	1.293026e+00	1.292777e+00	1.292789e+00	1.291948e+00	1.292111e+00	1.292172e+00	1.292404e+00	1.292467e+00	1.292505e+00	1.291634e+00	1.292683e+00	1.292697e+00	1.292481e+00	1.293277e+00	1.292757e+00	1.291773e+00	1.291741e+00	1.292696e+00	1.293510e+00	1.294077e+00	1.292232e+00	1.292464e+00	1.291917e+00	1.292326e+00	1.292513e+00	1.292435e+00	1.292400e+00	1.292196e+00	1.292239e+00	1.292780e+00	1.292727e+00	1.292779e+00	1.291815e+00	1.291871e+00	1.292684e+00	1.292625e+00	1.292682e+00	1.291730e+00	1.291613e+00	1.292592e+00	1.292330e+00	1.292369e+00	1.292440e+00	1.292353e+00	1.292572e+00	1.291088e+00	1.292417e+00	1.292437e+00	1.292243e+00	1.291832e+00	1.292589e+00	1.292510e+00	1.292586e+00	1.292526e+00	1.291386e+00	1.292011e+00	1.290993e+00	1.291095e+00	1.291385e+00	1.292671e+00	1.292772e+00	1.292010e+00	1.291978e+00	1.292748e+00	1.292761e+00	1.183297e+00	1.200682e+00	1.292204e+00	1.291793e+00	1.292900e+00	1.292727e+00	1.290429e+00	1.291851e+00	1.291794e+00	1.292764e+00	1.292654e+00	1.292041e+00	1.292697e+00	1.292785e+00	1.291984e+00	1.291919e+00	1.291899e+00	1.292460e+00	1.292409e+00	1.292438e+00	1.292293e+00	1.292580e+00	1.292117e+00	1.292594e+00	1.340628e+00	1.338362e+00	1.329826e+00	1.294860e+00	1.404418e+00	1.386936e+00	1.418552e+00	1.293286e+00	1.291147e+00	1.292525e+00	1.290674e+00	1.292169e+00	1.292385e+00	1.290406e+00	1.292627e+00	1.292934e+00	1.293435e+00	1.293694e+00	1.358303e+00	1.317157e+00	1.323646e+00	1.290437e+00	1.293148e+00	1.287041e+00	1.286863e+00	1.291860e+00	1.231297e+00	1.293538e+00	1.294280e+00	1.293759e+00	1.289911e+00	1.289909e+00	1.289913e+00	1.288334e+00	1.288797e+00	1.289401e+00	1.295797e+00	1.295629e+00	1.282130e+00	1.295407e+00	1.293696e+00	1.296918e+00	1.294619e+00	1.294673e+00	1.293550e+00	1.297894e+00	1.290970e+00	1.289150e+00	1.291226e+00	1.334192e+00	1.291802e+00	1.292095e+00	1.292476e+00	1.294612e+00	1.285730e+00	1.288488e+00	1.290915e+00	1.293267e+00	1.031716e+00	1.295436e+00	1.296023e+00	1.297470e+00	1.299231e+00	1.300730e+00	9.779222e-01	9.659200e-01	9.321142e-01	1.293267e+00	1.294169e+00	1.283659e+00	1.295986e+00	1.303266e+00	1.301476e+00	1.311140e+00	1.306567e+00	1.303918e+00	1.344079e+00	1.343997e+00	1.342639e+00	1.297214e+00	1.300294e+00	1.298532e+00	1.396411e+00	1.429532e+00	1.383378e+00	1.295087e+00	1.291380e+00	1.293532e+00	1.296284e+00	1.296390e+00	1.274899e+00	1.297619e+00	1.295131e+00	1.280652e+00	1.296253e+00	1.297300e+00	1.281610e+00	1.284142e+00	1.290648e+00	1.296606e+00	1.387157e+00	1.295620e+00	1.282425e+00	1.323110e+00	1.234740e+00	1.282064e+00	1.297047e+00	1.297236e+00	1.296652e+00	1.297381e+00	1.296624e+00	1.248632e+00	1.296384e+00	1.303465e+00	1.293666e+00	1.288756e+00	1.276184e+00	1.265284e+00	1.298076e+00	1.334467e+00	1.278940e+00	1.309938e+00	1.300742e+00	1.299712e+00	1.297978e+00	1.305618e+00	1.301987e+00	1.312355e+00	1.308926e+00	1.308113e+00	1.302533e+00	1.309322e+00	1.291952e+00	1.272620e+00	1.276474e+00	1.256565e+00	1.300669e+00	1.299904e+00	1.271166e+00	1.345321e+00	1.340713e+00	1.342115e+00	1.286450e+00	1.303513e+00	1.278629e+00	1.298357e+00	1.380652e+00	1.398017e+00	1.406285e+00	1.294438e+00	1.287955e+00	1.292571e+00	1.105859e+00	1.122187e+00	1.194500e+00	1.292194e+00	1.176698e+00	1.230012e+00	1.204741e+00	1.304534e+00	1.311125e+00	1.294874e+00	1.306402e+00	1.274674e+00	1.315721e+00	1.271833e+00	1.277043e+00	1.291463e+00	1.189479e+00	1.266121e+00	1.318431e+00	1.316025e+00	1.322164e+00	1.137297e+00	1.320671e+00	1.300625e+00	1.317003e+00	1.256003e+00	1.308072e+00	1.246162e+00	1.276492e+00	1.273496e+00	1.254832e+00	1.265163e+00	1.294910e+00	9.576392e-01	1.294298e+00	1.310000e+00	1.196317e+00	1.138309e+00	1.313539e+00	1.339849e+00	1.281097e+00	1.200214e+00	1.193088e+00	1.212663e+00	1.190825e+00	1.086901e+00	1.208071e+00	1.253118e+00	1.044711e+00	1.039369e+00	1.312643e+00	1.314977e+00	1.323048e+00	1.335146e+00	1.335559e+00	1.414430e+00	1.434325e+00	1.130750e+00	5.544508e-01	6.029748e-01	5.928507e-01	1.263111e+00	1.277376e+00	1.278846e+00	1.270436e+00	1.250013e+00	1.285664e+00	1.312642e+00	1.315895e+00	1.322075e+00	1.310907e+00	1.329501e+00	1.284145e+00	1.259921e+00	1.340222e+00	1.346471e+00	1.227869e+00	1.209658e+00	1.189634e+00	1.270719e+00	1.292911e+00	1.325522e+00	1.326962e+00	1.280098e+00	1.244915e+00	1.361537e+00	1.154571e+00	1.076578e+00	1.163474e+00	1.248030e+00	1.047418e+00	1.318565e+00	1.326363e+00	1.295689e+00	1.338615e+00	1.343031e+00	1.188032e+00	1.101511e+00	1.357455e+00	1.636749e+00	1.616102e+00	1.355908e+00	1.283319e+00	1.287075e+00	1.290653e+00	1.269007e+00	1.248019e+00	1.216333e+00	1.149437e+00	8.431543e-01	8.798057e-01	9.142441e-01	1.242523e+00	1.224675e+00	1.242331e+00	1.126480e+00	1.304706e+00	1.303509e+00	1.312747e+00	1.332606e+00	1.324720e+00	1.165486e+00	1.239501e+00	1.449851e+00	1.436302e+00	1.606251e+00	1.587661e+00	1.594255e+00	1.186597e+00	1.228237e+00	1.430671e+00	1.406671e+00	1.436044e+00	1.262977e+00	9.477986e-01	5.719910e-01	8.030638e-01	1.194771e+00	1.340985e+00	1.288342e+00	7.967842e-01	8.824346e-01	1.313935e+00	1.326629e+00	1.342916e+00	1.287592e+00	1.331921e+00	1.324007e+00	1.331062e+00	1.262519e+00	1.339283e+00	1.325420e+00	1.224241e+00	1.252595e+00	1.240155e+00	1.246119e+00	1.209495e+00	1.380336e+00	1.380850e+00	1.401627e+00	1.334418e+00	1.327608e+00	1.385737e+00	1.081018e+00	1.284615e+00	1.243874e+00	1.156916e+00	1.157085e+00	1.231084e+00	6.961477e-01	1.238376e+00	1.245872e+00	1.245193e+00	1.251166e+00	1.245656e+00	1.083524e+00	1.119634e+00	1.401818e+00	1.305954e+00	1.272302e+00	1.257368e+00	1.320031e+00	1.306809e+00	1.311826e+00	1.325216e+00	1.352735e+00	1.374277e+00	1.099260e+00	1.034644e+00	1.106666e+00	1.465373e+00	1.331375e+00	1.342780e+00	1.328915e+00	1.346343e+00	1.353010e+00	1.310110e+00	1.322755e+00	1.299180e+00	1.326597e+00	1.253538e+00	1.276058e+00	1.177556e+00	1.118653e+00	1.169704e+00	1.159571e+00	1.180265e+00	1.214814e+00	1.350629e+00	1.265978e+00	1.215057e+00	1.015462e+00	1.279332e+00	1.229919e+00	1.243989e+00	1.277547e+00	1.257589e+00	1.260058e+00	1.280510e+00	1.270343e+00	1.031249e+00	1.080904e+00	9.320496e-01	1.173188e+00	1.176297e+00	1.197048e+00	5.678832e-01	1.153980e+00	1.118672e+00	1.437506e+00	1.517794e+00	1.501780e+00	5.099290e-01	7.704077e-01	1.224604e+00	1.218729e+00	1.198284e+00	1.246906e+00	1.234335e+00	1.310358e+00	1.084405e+00	1.274180e+00	1.268788e+00	1.345713e+00	1.353431e+00	1.345277e+00	1.311356e+00	1.325730e+00	1.323238e+00	1.208036e+00	1.186009e+00	1.219293e+00	1.253113e+00	1.278820e+00	1.367777e+00	1.393551e+00	1.376395e+00	1.000423e+00	1.275197e+00	1.006131e+00	1.325144e+00	1.319602e+00	1.345437e+00	1.338626e+00	1.304152e+00	1.222944e+00	1.353123e+00	1.346078e+00	1.292334e+00	1.294074e+00	1.303152e+00	1.351855e+00	1.351196e+00	1.454725e+00	1.472793e+00	1.418236e+00	1.211555e+00	1.197773e+00	1.206259e+00	9.189934e-01	9.421672e-01	9.884615e-01	1.193841e+00	1.207344e+00	1.088851e+00	1.117523e+00	1.098472e+00	1.346185e+00	1.339788e+00	1.293421e+00	1.151563e+00	1.105182e+00	1.379369e+00	1.223982e+00	1.279721e+00	1.225034e+00	7.385886e-01	7.836427e-01	9.150420e-01	8.327244e-01	6.185059e-01	5.374107e-01	5.126097e-01	1.505829e+00	1.509783e+00	1.373873e+00	1.334958e+00	1.260364e+00	1.257234e+00	1.261598e+00	1.281210e+00	1.262495e+00	9.376402e-01	1.216708e+00	1.238851e+00	1.017058e+00	1.341803e+00	1.196375e+00	1.179107e+00	1.421943e+00	1.086824e+00	1.207549e+00	1.206393e+00	1.196292e+00	1.342850e+00	1.332689e+00	1.351226e+00	1.358590e+00	1.358481e+00	1.358754e+00	1.256110e+00	1.468998e+00	9.989818e-01	1.270511e+00	1.340850e+00	1.389298e+00	1.334858e+00	1.330003e+00	1.323248e+00	1.208854e+00	1.232963e+00	1.232018e+00	1.267302e+00	1.251013e+00	1.264656e+00	1.270233e+00	1.265945e+00	8.549221e-01	9.605568e-01	1.050925e+00	1.176572e+00	1.274920e+00	1.276734e+00	1.316668e+00	1.328219e+00	1.251835e+00	1.258693e+00	1.291360e+00	1.283060e+00	1.302741e+00	1.266656e+00	1.289895e+00	1.282932e+00	1.226408e+00	1.011518e+00	1.008941e+00	1.095303e+00	1.281595e+00	1.424540e+00	1.272059e+00	1.326969e+00	1.157245e+00	1.089182e+00	1.158160e+00	8.545648e-01	1.149707e+00	1.151015e+00	1.112878e+00	1.410166e+00	8.894190e-01	8.866183e-01	9.522176e-01	1.332683e+00	1.348294e+00	1.238128e+00	1.356668e+00	1.358495e+00	1.356997e+00	1.358195e+00	1.215416e+00	1.358262e+00	1.356142e+00	1.356560e+00	1.436923e+00	1.422531e+00	6.622055e-01	6.679710e-01	6.164503e-01	1.240807e+00	1.228414e+00	1.225724e+00	1.231692e+00	1.230501e+00	5.731228e-01	6.732514e-01	1.384180e+00	1.315125e+00	1.326742e+00	1.269785e+00	1.398722e+00	1.382148e+00	1.141091e+00	1.210763e+00	6.382910e-01	1.057499e+00	1.067699e+00	8.315850e-01	8.118465e-01	1.289520e+00	1.270610e+00	1.231399e+00	1.247117e+00	1.132918e+00	1.180033e+00	1.313938e+00	1.205092e+00	1.284504e+00	1.270523e+00	1.463150e+00	1.473905e+00	1.491302e+00	1.104491e+00	1.149865e+00	1.155733e+00	1.333966e+00	1.341151e+00	1.330615e+00	1.320896e+00	1.313773e+00	1.220431e+00	1.216355e+00	1.101551e+00	8.725308e-01	1.275959e+00	1.355475e+00	1.353841e+00	1.106479e+00	1.498457e+00	1.278487e+00	1.203883e+00	1.249095e+00	1.274375e+00	1.250073e+00	1.239589e+00	1.250854e+00	1.339532e+00	1.347239e+00	1.351121e+00	9.421060e-01	1.233205