# vtk DataFile Version 3.0
vtk output
ASCII
DATASET UNSTRUCTURED_GRID
POINTS 198 double
0.000000e+00	0.000000e+00	0.0	3.007745e-03	3.994180e-03	0.0	6.128369e-03	8.138260e-03	0.0	1.045355e-02	1.131817e-02	0.0	1.499727e-02	1.455361e-02	0.0	2.023923e-02	1.698469e-02	0.0	2.568469e-02	1.947411e-02	0.0	3.154267e-02	2.150485e-02	0.0	3.762015e-02	2.355791e-02	0.0	4.404690e-02	2.521905e-02	0.0	5.073447e-02	2.672136e-02	0.0	5.776163e-02	2.768672e-02	0.0	6.505692e-02	2.805582e-02	0.0	7.261940e-02	2.790760e-02	0.0	8.034012e-02	2.680789e-02	0.0	8.830173e-02	2.563419e-02	0.0	9.652891e-02	2.457829e-02	0.0	1.050411e-01	2.426884e-02	0.0	1.138316e-01	2.452913e-02	0.0	1.227196e-01	2.600032e-02	0.0	1.317832e-01	2.808520e-02	0.0	1.409634e-01	3.068195e-02	0.0	1.502266e-01	3.390751e-02	0.0	1.597296e-01	3.721656e-02	0.0	1.693790e-01	4.086250e-02	0.0	1.792560e-01	4.461809e-02	0.0	1.893887e-01	4.839998e-02	0.0	1.998194e-01	5.208464e-02	0.0	2.104790e-01	5.585019e-02	0.0	2.214818e-01	5.932723e-02	0.0	2.327954e-01	6.260060e-02	0.0	2.443283e-01	6.593741e-02	0.0	2.562872e-01	6.848107e-02	0.0	2.684671e-01	7.102602e-02	0.0	2.809225e-01	7.316400e-02	0.0	2.936888e-01	7.462236e-02	0.0	3.066439e-01	7.610227e-02	0.0	3.198519e-01	7.641883e-02	0.0	3.332405e-01	7.656593e-02	0.0	3.467738e-01	7.627185e-02	0.0	3.604315e-01	7.525675e-02	0.0	3.742239e-01	7.423165e-02	0.0	3.880586e-01	7.243940e-02	0.0	4.019920e-01	7.054371e-02	0.0	4.159859e-01	6.841560e-02	0.0	4.300083e-01	6.594284e-02	0.0	4.440969e-01	6.345843e-02	0.0	4.581950e-01	6.073740e-02	0.0	4.723249e-01	5.798165e-02	0.0	4.864807e-01	5.524048e-02	0.0	5.006499e-01	5.252881e-02	0.0	5.148117e-01	4.981856e-02	0.0	5.290063e-01	4.742136e-02	0.0	5.431722e-01	4.507753e-02	0.0	5.573179e-01	4.296325e-02	0.0	5.714530e-01	4.124711e-02	0.0	5.855071e-01	3.954079e-02	0.0	5.995235e-01	3.843560e-02	0.0	6.134400e-01	3.743111e-02	0.0	6.272467e-01	3.670198e-02	0.0	6.409395e-01	3.643633e-02	0.0	6.544852e-01	3.617354e-02	0.0	6.678669e-01	3.654773e-02	0.0	6.810781e-01	3.701674e-02	0.0	6.941021e-01	3.761759e-02	0.0	7.069232e-01	3.847000e-02	0.0	7.195457e-01	3.930920e-02	0.0	7.319688e-01	4.000903e-02	0.0	7.441788e-01	4.067131e-02	0.0	7.561732e-01	4.104050e-02	0.0	7.679502e-01	4.091467e-02	0.0	7.794934e-01	4.079135e-02	0.0	7.907281e-01	3.953362e-02	0.0	8.017210e-01	3.829610e-02	0.0	8.123795e-01	3.649526e-02	0.0	8.227587e-01	3.451207e-02	0.0	8.328589e-01	3.242180e-02	0.0	8.426770e-01	3.021718e-02	0.0	8.522528e-01	2.809295e-02	0.0	8.616027e-01	2.612628e-02	0.0	8.707038e-01	2.421192e-02	0.0	8.795849e-01	2.249001e-02	0.0	8.882250e-01	2.085013e-02	0.0	8.966240e-01	1.928636e-02	0.0	9.047896e-01	1.782854e-02	0.0	9.127125e-01	1.641404e-02	0.0	9.203971e-01	1.505126e-02	0.0	9.278452e-01	1.373250e-02	0.0	9.350577e-01	1.244380e-02	0.0	9.420365e-01	1.117554e-02	0.0	9.487894e-01	9.948044e-03	0.0	9.553147e-01	8.730458e-03	0.0	9.616226e-01	7.553451e-03	0.0	9.677130e-01	6.392995e-03	0.0	9.735943e-01	5.268065e-03	0.0	9.792674e-01	4.159312e-03	0.0	9.847400e-01	3.080551e-03	0.0	9.900156e-01	2.023969e-03	0.0	9.950986e-01	9.872324e-04	0.0	1.000000e+00	0.000000e+00	0.0	9.950063e-01	2.455834e-04	0.0	9.898212e-01	4.425924e-04	0.0	9.844404e-01	5.870106e-04	0.0	9.788595e-01	6.864981e-04	0.0	9.730743e-01	7.613569e-04	0.0	9.670795e-01	7.783901e-04	0.0	9.608711e-01	7.721492e-04	0.0	9.544444e-01	7.006017e-04	0.0	9.477950e-01	6.120232e-04	0.0	9.409198e-01	4.280697e-04	0.0	9.338130e-01	2.379185e-04	0.0	9.264742e-01	-6.236721e-05	0.0	9.188969e-01	-3.945322e-04	0.0	9.110808e-01	-8.067250e-04	0.0	9.030248e-01	-1.341396e-03	0.0	8.947204e-01	-1.892557e-03	0.0	8.861851e-01	-2.704019e-03	0.0	8.773994e-01	-3.565038e-03	0.0	8.683800e-01	-4.620897e-03	0.0	8.591308e-01	-5.916125e-03	0.0	8.496319e-01	-7.277727e-03	0.0	8.399333e-01	-9.020353e-03	0.0	8.299818e-01	-1.080843e-02	0.0	8.197755e-01	-1.262662e-02	0.0	8.093180e-01	-1.448585e-02	0.0	7.985709e-01	-1.612540e-02	0.0	7.875455e-01	-1.759969e-02	0.0	7.762541e-01	-1.888393e-02	0.0	7.646675e-01	-1.964299e-02	0.0	7.528443e-01	-2.041754e-02	0.0	7.407723e-01	-2.084459e-02	0.0	7.284737e-01	-2.124599e-02	0.0	7.159618e-01	-2.176880e-02	0.0	7.032457e-01	-2.243889e-02	0.0	6.903279e-01	-2.311961e-02	0.0	6.772857e-01	-2.461029e-02	0.0	6.640656e-01	-2.616716e-02	0.0	6.507455e-01	-2.819367e-02	0.0	6.373649e-01	-3.086792e-02	0.0	6.238378e-01	-3.357148e-02	0.0	6.103264e-01	-3.695901e-02	0.0	5.967155e-01	-4.046834e-02	0.0	5.830332e-01	-4.413675e-02	0.0	5.693338e-01	-4.810966e-02	0.0	5.555548e-01	-5.210563e-02	0.0	5.417314e-01	-5.619244e-02	0.0	5.278636e-01	-6.031760e-02	0.0	5.139456e-01	-6.440648e-02	0.0	4.999497e-01	-6.830823e-02	0.0	4.859464e-01	-7.221203e-02	0.0	4.718496e-01	-7.571932e-02	0.0	4.577219e-01	-7.901285e-02	0.0	4.436038e-01	-8.215678e-02	0.0	4.293702e-01	-8.443598e-02	0.0	4.152039e-01	-8.670440e-02	0.0	4.010254e-01	-8.814909e-02	0.0	3.868953e-01	-8.916991e-02	0.0	3.728689e-01	-8.993135e-02	0.0	3.589392e-01	-8.969030e-02	0.0	3.451466e-01	-8.945162e-02	0.0	3.315617e-01	-8.829443e-02	0.0	3.181576e-01	-8.682920e-02	0.0	3.049661e-01	-8.510956e-02	0.0	2.920743e-01	-8.262808e-02	0.0	2.793717e-01	-8.018305e-02	0.0	2.669238e-01	-7.750548e-02	0.0	2.547018e-01	-7.477458e-02	0.0	2.426771e-01	-7.216759e-02	0.0	2.308035e-01	-6.994355e-02	0.0	2.191575e-01	-6.776213e-02	0.0	2.076421e-01	-6.638703e-02	0.0	1.963106e-01	-6.545694e-02	0.0	1.852194e-01	-6.467567e-02	0.0	1.743455e-01	-6.471080e-02	0.0	1.637241e-01	-6.474511e-02	0.0	1.533573e-01	-6.471293e-02	0.0	1.432466e-01	-6.464584e-02	0.0	1.334076e-01	-6.437121e-02	0.0	1.238966e-01	-6.309236e-02	0.0	1.146405e-01	-6.184777e-02	0.0	1.059267e-01	-5.941769e-02	0.0	9.757619e-02	-5.655450e-02	0.0	8.954842e-02	-5.357699e-02	0.0	8.211947e-02	-4.982497e-02	0.0	7.491279e-02	-4.618520e-02	0.0	6.806935e-02	-4.239312e-02	0.0	6.152743e-02	-3.855532e-02	0.0	5.518489e-02	-3.485118e-02	0.0	4.899434e-02	-3.135546e-02	0.0	4.300557e-02	-2.797368e-02	0.0	3.710559e-02	-2.490642e-02	0.0	3.139073e-02	-2.196577e-02	0.0	2.582807e-02	-1.920849e-02	0.0	2.047374e-02	-1.651344e-02	0.0	1.536148e-02	-1.380412e-02	0.0	1.057976e-02	-1.093262e-02	0.0	6.145911e-03	-7.900490e-03	0.0	2.294066e-03	-4.423791e-03	0.0	
CELLS 198	594
2	22	23	2	23	24	2	24	25	2	25	26	2	26	27	2	27	28	2	28	29	2	29	30	2	30	31	2	31	32	2	32	33	2	33	34	2	34	35	2	35	36	2	36	37	2	37	38	2	38	39	2	39	40	2	40	41	2	41	42	2	42	43	2	43	44	2	44	45	2	45	46	2	46	47	2	47	48	2	48	49	2	49	50	2	50	51	2	51	52	2	52	53	2	53	54	2	54	55	2	55	56	2	56	57	2	57	58	2	58	59	2	59	60	2	60	61	2	61	62	2	62	63	2	63	64	2	64	65	2	65	66	2	66	67	2	67	68	2	68	69	2	69	70	2	70	71	2	71	72	2	72	73	2	73	74	2	74	75	2	75	76	2	76	77	2	77	78	2	78	79	2	79	80	2	80	81	2	81	82	2	82	83	2	83	84	2	84	85	2	85	86	2	86	87	2	87	88	2	88	89	2	89	90	2	90	91	2	91	92	2	92	93	2	93	94	2	94	95	2	0	1	2	1	2	2	2	3	2	3	4	2	4	5	2	5	6	2	6	7	2	7	8	2	8	9	2	9	10	2	10	11	2	11	12	2	12	13	2	13	14	2	14	15	2	15	16	2	16	17	2	17	18	2	18	19	2	19	20	2	20	21	2	21	22	2	158	159	2	159	160	2	160	161	2	161	162	2	162	163	2	163	164	2	164	165	2	165	166	2	166	167	2	167	168	2	168	169	2	169	170	2	170	171	2	171	172	2	172	173	2	173	174	2	174	175	2	175	176	2	176	177	2	177	178	2	178	179	2	179	180	2	180	181	2	181	182	2	182	183	2	183	184	2	184	185	2	185	186	2	186	187	2	187	188	2	188	189	2	189	190	2	190	191	2	191	192	2	192	193	2	193	194	2	194	195	2	195	196	2	196	197	2	197	0	2	95	96	2	96	97	2	97	98	2	98	99	2	99	100	2	100	101	2	101	102	2	102	103	2	103	104	2	104	105	2	105	106	2	106	107	2	107	108	2	108	109	2	109	110	2	110	111	2	111	112	2	112	113	2	113	114	2	114	115	2	115	116	2	116	117	2	117	118	2	118	119	2	119	120	2	120	121	2	121	122	2	122	123	2	123	124	2	124	125	2	125	126	2	126	127	2	127	128	2	128	129	2	129	130	2	130	131	2	131	132	2	132	133	2	133	134	2	134	135	2	135	136	2	136	137	2	137	138	2	138	139	2	139	140	2	140	141	2	141	142	2	142	143	2	143	144	2	144	145	2	145	146	2	146	147	2	147	148	2	148	149	2	149	150	2	150	151	2	151	152	2	152	153	2	153	154	2	154	155	2	155	156	2	156	157	2	157	158	
CELL_TYPES 198
3	3	3	3	3	3	3	3	3	3	3	3	3	3	3	3	3	3	3	3	3	3	3	3	3	3	3	3	3	3	3	3	3	3	3	3	3	3	3	3	3	3	3	3	3	3	3	3	3	3	3	3	3	3	3	3	3	3	3	3	3	3	3	3	3	3	3	3	3	3	3	3	3	3	3	3	3	3	3	3	3	3	3	3	3	3	3	3	3	3	3	3	3	3	3	3	3	3	3	3	3	3	3	3	3	3	3	3	3	3	3	3	3	3	3	3	3	3	3	3	3	3	3	3	3	3	3	3	3	3	3	3	3	3	3	3	3	3	3	3	3	3	3	3	3	3	3	3	3	3	3	3	3	3	3	3	3	3	3	3	3	3	3	3	3	3	3	3	3	3	3	3	3	3	3	3	3	3	3	3	3	3	3	3	3	3	3	3	3	3	3	3	3	3	3	3	3	3	
POINT_DATA 198

SCALARS Density double 1
LOOKUP_TABLE default
1.546458e+00	1.245004e+00	1.214449e+00	1.097991e+00	1.031845e+00	9.717781e-01	9.635172e-01	9.423765e-01	9.162294e-01	8.647212e-01	7.901430e-01	7.131542e-01	7.352816e-01	9.395275e-01	1.218913e+00	1.300572e+00	1.346214e+00	1.367026e+00	1.378434e+00	1.378496e+00	1.362975e+00	1.353014e+00	1.331538e+00	1.305240e+00	1.282169e+00	1.246779e+00	1.209316e+00	1.177277e+00	1.135352e+00	1.088257e+00	1.058201e+00	9.968492e-01	9.461713e-01	9.192303e-01	8.611064e-01	8.204517e-01	7.610113e-01	6.979450e-01	6.713969e-01	6.276192e-01	5.973499e-01	5.706288e-01	5.420980e-01	5.352908e-01	5.187221e-01	5.127266e-01	5.030928e-01	4.941757e-01	5.530463e-01	8.448764e-01	1.117502e+00	1.135831e+00	1.157565e+00	1.165543e+00	1.179858e+00	1.183209e+00	1.189844e+00	1.194142e+00	1.192040e+00	1.196219e+00	1.192057e+00	1.190478e+00	1.186688e+00	1.174914e+00	1.167483e+00	1.155083e+00	1.136802e+00	1.121531e+00	1.104195e+00	1.081065e+00	1.074170e+00	1.056840e+00	1.060749e+00	1.083291e+00	1.094152e+00	1.118959e+00	1.134990e+00	1.152132e+00	1.168161e+00	1.176808e+00	1.184700e+00	1.191442e+00	1.194538e+00	1.199489e+00	1.202876e+00	1.205666e+00	1.209040e+00	1.212117e+00	1.214993e+00	1.218591e+00	1.221781e+00	1.225030e+00	1.228748e+00	1.232154e+00	1.236087e+00	1.240033e+00	1.243818e+00	1.251478e+00	1.244822e+00	1.258637e+00	1.374897e+00	1.329486e+00	1.339175e+00	1.339688e+00	1.341345e+00	1.342703e+00	1.343909e+00	1.345766e+00	1.346354e+00	1.347751e+00	1.349098e+00	1.348950e+00	1.351437e+00	1.350306e+00	1.353131e+00	1.353278e+00	1.351060e+00	1.352700e+00	1.347028e+00	1.345777e+00	1.339932e+00	1.326171e+00	1.317375e+00	1.301541e+00	1.287899e+00	1.280199e+00	1.267339e+00	1.271643e+00	1.278619e+00	1.286481e+00	1.303836e+00	1.316206e+00	1.323507e+00	1.339416e+00	1.345322e+00	1.344821e+00	1.353057e+00	1.345613e+00	1.343169e+00	1.338573e+00	1.323603e+00	1.315854e+00	1.301996e+00	1.285451e+00	1.271456e+00	1.251257e+00	1.228338e+00	1.226083e+00	1.181582e+00	1.049356e+00	7.363777e-01	6.338393e-01	6.441559e-01	6.739981e-01	7.111440e-01	7.576059e-01	7.822598e-01	8.327223e-01	8.790007e-01	9.266182e-01	9.900212e-01	1.021737e+00	1.081502e+00	1.147277e+00	1.190148e+00	1.240320e+00	1.283458e+00	1.308640e+00	1.340878e+00	1.363929e+00	1.354217e+00	1.360553e+00	1.347401e+00	1.305107e+00	1.271806e+00	1.225972e+00	1.128818e+00	1.054296e+00	9.945953e-01	1.009246e+00	1.112819e+00	1.152432e+00	1.223165e+00	1.303648e+00	1.345543e+00	1.396612e+00	1.439044e+00	1.466192e+00	1.492318e+00	1.511023e+00	1.523607e+00	1.536754e+00	1.546991e+00	1.557892e+00	1.578311e+00	1.597893e+00	1.615611e+00	1.678680e+00	
VECTORS Momentum double
2.149862e+01	1.962180e+02	0.0	1.571152e+02	1.999349e+02	0.0	2.035136e+02	2.016869e+02	0.0	2.425997e+02	1.768786e+02	0.0	2.708070e+02	1.563929e+02	0.0	2.809604e+02	1.277480e+02	0.0	2.925668e+02	1.160074e+02	0.0	2.982091e+02	1.018300e+02	0.0	3.024306e+02	9.007843e+01	0.0	3.037204e+02	7.445684e+01	0.0	2.990953e+02	5.403709e+01	0.0	2.856811e+02	2.855768e+01	0.0	2.821696e+02	6.743662e+00	0.0	2.646574e+02	-1.878935e+01	0.0	2.351137e+02	-3.169504e+01	0.0	2.119128e+02	-2.885222e+01	0.0	1.889805e+02	-1.484982e+01	0.0	1.748092e+02	-3.359341e-01	0.0	1.677622e+02	1.659594e+01	0.0	1.701543e+02	3.389419e+01	0.0	1.771356e+02	4.542831e+01	0.0	1.856651e+02	5.861799e+01	0.0	1.979787e+02	6.912924e+01	0.0	2.098058e+02	7.614906e+01	0.0	2.232632e+02	8.472835e+01	0.0	2.365589e+02	8.926644e+01	0.0	2.485012e+02	9.007780e+01	0.0	2.604525e+02	9.202658e+01	0.0	2.715007e+02	9.096079e+01	0.0	2.792419e+02	8.427504e+01	0.0	2.884238e+02	8.323006e+01	0.0	2.952832e+02	7.394496e+01	0.0	2.973977e+02	6.248266e+01	0.0	3.013438e+02	5.787005e+01	0.0	2.985409e+02	4.333531e+01	0.0	2.971783e+02	3.448059e+01	0.0	2.917055e+02	2.087644e+01	0.0	2.801089e+02	4.999847e+00	0.0	2.765142e+02	-1.597213e+00	0.0	2.664380e+02	-1.219251e+01	0.0	2.589719e+02	-1.933151e+01	0.0	2.524201e+02	-2.579117e+01	0.0	2.432814e+02	-3.273641e+01	0.0	2.420733e+02	-3.536702e+01	0.0	2.357109e+02	-3.880670e+01	0.0	2.349127e+02	-4.149712e+01	0.0	2.311139e+02	-4.256306e+01	0.0	2.257240e+02	-4.347666e+01	0.0	2.304028e+02	-4.442654e+01	0.0	2.250460e+02	-4.203691e+01	0.0	2.118004e+02	-3.990595e+01	0.0	2.040449e+02	-3.674452e+01	0.0	1.978635e+02	-3.307327e+01	0.0	1.923486e+02	-3.056123e+01	0.0	1.883381e+02	-2.540504e+01	0.0	1.846929e+02	-2.251087e+01	0.0	1.819665e+02	-1.828765e+01	0.0	1.815671e+02	-1.362777e+01	0.0	1.803327e+02	-1.131859e+01	0.0	1.802131e+02	-6.441805e+00	0.0	1.809196e+02	-3.560334e+00	0.0	1.825440e+02	6.427586e-01	0.0	1.869765e+02	5.914279e+00	0.0	1.917903e+02	7.742098e+00	0.0	1.967491e+02	1.100592e+01	0.0	2.039078e+02	1.360046e+01	0.0	2.111069e+02	1.296826e+01	0.0	2.180366e+02	1.210072e+01	0.0	2.255281e+02	9.736206e+00	0.0	2.304484e+02	2.197835e+00	0.0	2.365724e+02	-2.432845e+00	0.0	2.384980e+02	-1.446034e+01	0.0	2.342173e+02	-2.630140e+01	0.0	2.297048e+02	-3.198836e+01	0.0	2.224136e+02	-3.988127e+01	0.0	2.147191e+02	-4.258029e+01	0.0	2.064264e+02	-4.450659e+01	0.0	1.979461e+02	-4.420793e+01	0.0	1.918871e+02	-4.143614e+01	0.0	1.871798e+02	-3.935353e+01	0.0	1.828391e+02	-3.697849e+01	0.0	1.803393e+02	-3.459142e+01	0.0	1.775472e+02	-3.339378e+01	0.0	1.751901e+02	-3.194753e+01	0.0	1.735121e+02	-3.097016e+01	0.0	1.715711e+02	-3.053094e+01	0.0	1.695104e+02	-3.004289e+01	0.0	1.675182e+02	-2.978553e+01	0.0	1.651936e+02	-2.976618e+01	0.0	1.626939e+02	-2.955007e+01	0.0	1.601257e+02	-2.946375e+01	0.0	1.572652e+02	-2.934640e+01	0.0	1.545688e+02	-2.913716e+01	0.0	1.517498e+02	-2.897069e+01	0.0	1.486855e+02	-2.871477e+01	0.0	1.452339e+02	-2.846687e+01	0.0	1.410069e+02	-2.805825e+01	0.0	1.370047e+02	-2.757900e+01	0.0	1.267313e+02	-2.724004e+01	0.0	1.456959e+02	-6.547709e+00	0.0	2.342158e+02	-1.372261e+01	0.0	2.153087e+02	-6.460648e+00	0.0	2.171876e+02	-4.836388e+00	0.0	2.162500e+02	-3.348026e+00	0.0	2.153136e+02	-1.737612e+00	0.0	2.144272e+02	-1.909527e-01	0.0	2.137746e+02	1.291993e+00	0.0	2.130038e+02	2.589896e+00	0.0	2.121542e+02	4.278703e+00	0.0	2.116250e+02	5.643695e+00	0.0	2.108973e+02	7.127860e+00	0.0	2.104464e+02	8.939607e+00	0.0	2.098413e+02	1.013210e+01	0.0	2.092152e+02	1.252115e+01	0.0	2.086852e+02	1.381046e+01	0.0	2.073907e+02	1.678177e+01	0.0	2.074827e+02	2.004289e+01	0.0	2.078677e+02	2.228259e+01	0.0	2.085244e+02	2.687233e+01	0.0	2.107998e+02	2.979833e+01	0.0	2.127562e+02	3.431834e+01	0.0	2.175656e+02	3.913458e+01	0.0	2.247057e+02	4.009741e+01	0.0	2.301721e+02	4.102326e+01	0.0	2.369987e+02	3.914874e+01	0.0	2.421092e+02	3.461803e+01	0.0	2.449059e+02	3.049494e+01	0.0	2.472857e+02	2.194662e+01	0.0	2.446859e+02	1.598915e+01	0.0	2.409157e+02	1.208494e+01	0.0	2.356748e+02	7.861910e+00	0.0	2.284257e+02	8.529039e+00	0.0	2.227489e+02	1.072038e+01	0.0	2.168569e+02	1.158621e+01	0.0	2.096496e+02	1.766913e+01	0.0	2.071351e+02	2.413487e+01	0.0	2.056614e+02	2.759372e+01	0.0	2.036491e+02	3.591508e+01	0.0	2.058693e+02	4.102230e+01	0.0	2.078066e+02	4.663960e+01	0.0	2.114257e+02	5.375244e+01	0.0	2.170487e+02	5.695681e+01	0.0	2.211976e+02	6.168705e+01	0.0	2.268727e+02	6.579337e+01	0.0	2.335726e+02	6.831601e+01	0.0	2.390891e+02	7.095424e+01	0.0	2.453001e+02	7.265217e+01	0.0	2.484134e+02	7.064038e+01	0.0	2.458310e+02	6.698971e+01	0.0	2.587825e+02	6.532139e+01	0.0	2.643726e+02	6.416753e+01	0.0	2.660137e+02	5.822556e+01	0.0	2.766324e+02	5.343385e+01	0.0	2.844741e+02	4.556427e+01	0.0	2.938736e+02	3.740930e+01	0.0	3.051848e+02	2.608831e+01	0.0	3.087048e+02	1.933500e+01	0.0	3.180546e+02	5.768630e+00	0.0	3.221693e+02	-5.621118e+00	0.0	3.257302e+02	-1.731389e+01	0.0	3.306598e+02	-3.266091e+01	0.0	3.274572e+02	-3.916088e+01	0.0	3.273806e+02	-5.310039e+01	0.0	3.222018e+02	-6.215477e+01	0.0	3.155799e+02	-6.452985e+01	0.0	3.092086e+02	-6.834917e+01	0.0	3.013833e+02	-6.644667e+01	0.0	2.946010e+02	-5.954515e+01	0.0	2.892025e+02	-5.450005e+01	0.0	2.839367e+02	-4.382021e+01	0.0	2.834094e+02	-2.834712e+01	0.0	2.868685e+02	-2.186811e+01	0.0	2.878491e+02	-9.727040e+00	0.0	2.958446e+02	1.028637e+00	0.0	3.074410e+02	-1.964320e-01	0.0	3.139195e+02	-1.702616e+00	0.0	3.199204e+02	-5.538728e+00	0.0	3.286967e+02	-2.635547e+01	0.0	3.227569e+02	-4.285583e+01	0.0	3.239395e+02	-6.669813e+01	0.0	3.226344e+02	-1.012623e+02	0.0	3.093797e+02	-1.103476e+02	0.0	2.973118e+02	-1.299775e+02	0.0	2.790234e+02	-1.413212e+02	0.0	2.611128e+02	-1.380551e+02	0.0	2.446161e+02	-1.398173e+02	0.0	2.286726e+02	-1.340284e+02	0.0	2.160865e+02	-1.240774e+02	0.0	2.052608e+02	-1.160108e+02	0.0	1.959779e+02	-1.063769e+02	0.0	1.888330e+02	-9.768171e+01	0.0	1.811475e+02	-9.148966e+01	0.0	1.715838e+02	-8.553137e+01	0.0	1.585425e+02	-8.149372e+01	0.0	1.372390e+02	-7.714669e+01	0.0	1.036432e+02	-6.585821e+01	0.0	5.871072e+01	-4.305260e+01	0.0	-2.258038e+01	3.093140e+01	0.0	
SCALARS Energy double 1
LOOKUP_TABLE default
3.389663e+05	2.774124e+05	2.730241e+05	2.498399e+05	2.373070e+05	2.247446e+05	2.236359e+05	2.194179e+05	2.142209e+05	2.036801e+05	1.880533e+05	1.711676e+05	1.749322e+05	2.144511e+05	2.709315e+05	2.870678e+05	2.957550e+05	2.996485e+05	3.018744e+05	3.020620e+05	2.990816e+05	2.974189e+05	2.934770e+05	2.885085e+05	2.844066e+05	2.777032e+05	2.705073e+05	2.645651e+05	2.565301e+05	2.471692e+05	2.416485e+05	2.294570e+05	2.191313e+05	2.139784e+05	2.018383e+05	1.935087e+05	1.810893e+05	1.674220e+05	1.618694e+05	1.522986e+05	1.456705e+05	1.398652e+05	1.334395e+05	1.320566e+05	1.282067e+05	1.270459e+05	1.247830e+05	1.224431e+05	1.341567e+05	1.920833e+05	2.482813e+05	2.517241e+05	2.559976e+05	2.574105e+05	2.602387e+05	2.607719e+05	2.620469e+05	2.629293e+05	2.624200e+05	2.632972e+05	2.624353e+05	2.621673e+05	2.615596e+05	2.592732e+05	2.579335e+05	2.556579e+05	2.521499e+05	2.492908e+05	2.460499e+05	2.414597e+05	2.403899e+05	2.369049e+05	2.375166e+05	2.420171e+05	2.439456e+05	2.487765e+05	2.517483e+05	2.549537e+05	2.580419e+05	2.596454e+05	2.611117e+05	2.624206e+05	2.629524e+05	2.638997e+05	2.645467e+05	2.650608e+05	2.656959e+05	2.662732e+05	2.667978e+05	2.674707e+05	2.680567e+05	2.686462e+05	2.693443e+05	2.699737e+05	2.707099e+05	2.714386e+05	2.721102e+05	2.736266e+05	2.718822e+05	2.753639e+05	3.038815e+05	2.932998e+05	2.954498e+05	2.955144e+05	2.958238e+05	2.960723e+05	2.963000e+05	2.966615e+05	2.967499e+05	2.970256e+05	2.972824e+05	2.972338e+05	2.977400e+05	2.974766e+05	2.980596e+05	2.980439e+05	2.975869e+05	2.979641e+05	2.968063e+05	2.966582e+05	2.955309e+05	2.928592e+05	2.913376e+05	2.882536e+05	2.856958e+05	2.843005e+05	2.817026e+05	2.826939e+05	2.840010e+05	2.854493e+05	2.888441e+05	2.911054e+05	2.923855e+05	2.954976e+05	2.964487e+05	2.962594e+05	2.979718e+05	2.963514e+05	2.959682e+05	2.951255e+05	2.921749e+05	2.908246e+05	2.881386e+05	2.849659e+05	2.823839e+05	2.784505e+05	2.739911e+05	2.736614e+05	2.640885e+05	2.372625e+05	1.740498e+05	1.541682e+05	1.572971e+05	1.637567e+05	1.718494e+05	1.819862e+05	1.871137e+05	1.979452e+05	2.074951e+05	2.173514e+05	2.306281e+05	2.367820e+05	2.490658e+05	2.622078e+05	2.705510e+05	2.805278e+05	2.889340e+05	2.936547e+05	3.000118e+05	3.044288e+05	3.022351e+05	3.037423e+05	3.009941e+05	2.926078e+05	2.864226e+05	2.773493e+05	2.577536e+05	2.433697e+05	2.309157e+05	2.343499e+05	2.560067e+05	2.632925e+05	2.775541e+05	2.934308e+05	3.010585e+05	3.109913e+05	3.190475e+05	3.240100e+05	3.289477e+05	3.323836e+05	3.346495e+05	3.370910e+05	3.388769e+05	3.407604e+05	3.445181e+05	3.478694e+05	3.508323e+05	3.641656e+05	
SCALARS Pressure double 1
LOOKUP_TABLE default
1.305474e+05	1.005780e+05	9.568986e+04	8.351675e+04	7.596739e+04	7.029290e+04	6.889363e+04	6.669319e+04	6.395178e+04	5.885435e+04	5.183873e+04	4.535023e+04	4.830360e+04	7.079493e+04	9.913766e+04	1.077934e+05	1.129634e+05	1.153886e+05	1.166263e+05	1.164575e+05	1.147256e+05	1.133641e+05	1.107857e+05	1.077700e+05	1.048675e+05	1.008263e+05	9.664814e+04	9.286319e+04	8.816957e+04	8.323200e+04	7.962757e+04	7.319224e+04	6.813186e+04	6.510531e+04	5.959866e+04	5.558528e+04	4.995827e+04	4.447821e+04	4.197059e+04	3.825032e+04	3.568842e+04	3.338110e+04	3.114460e+04	3.046084e+04	2.928033e+04	2.862094e+04	2.795891e+04	2.759153e+04	3.375144e+04	6.442612e+04	9.099900e+04	9.312083e+04	9.544585e+04	9.645529e+04	9.797327e+04	9.845719e+04	9.919679e+04	9.961921e+04	9.949034e+04	9.988202e+04	9.948032e+04	9.926871e+04	9.872589e+04	9.743757e+04	9.652126e+04	9.503194e+04	9.298977e+04	9.121250e+04	8.919011e+04	8.675813e+04	8.573446e+04	8.395800e+04	8.453301e+04	8.687643e+04	8.824530e+04	9.094597e+04	9.284150e+04	9.484047e+04	9.661876e+04	9.764049e+04	9.857020e+04	9.930807e+04	9.971638e+04	1.002723e+05	1.006534e+05	1.009866e+05	1.013759e+05	1.017326e+05	1.020812e+05	1.025007e+05	1.028834e+05	1.032800e+05	1.037108e+05	1.041154e+05	1.045735e+05	1.050428e+05	1.055204e+05	1.063294e+05	1.060532e+05	1.067657e+05	1.135454e+05	1.103398e+05	1.111317e+05	1.112227e+05	1.114166e+05	1.115802e+05	1.117188e+05	1.119209e+05	1.120111e+05	1.121596e+05	1.123117e+05	1.123154e+05	1.125643e+05	1.124843e+05	1.127588e+05	1.128194e+05	1.126027e+05	1.127237e+05	1.121592e+05	1.119275e+05	1.112802e+05	1.097742e+05	1.086253e+05	1.069018e+05	1.053178e+05	1.043755e+05	1.030689e+05	1.033843e+05	1.041954e+05	1.051339e+05	1.070083e+05	1.085025e+05	1.094390e+05	1.111570e+05	1.119989e+05	1.120363e+05	1.128242e+05	1.121847e+05	1.118259e+05	1.112730e+05	1.096789e+05	1.086764e+05	1.071550e+05	1.053046e+05	1.036377e+05	1.014385e+05	9.893969e+04	9.858450e+04	9.464666e+04	8.132805e+04	4.951874e+04	3.826909e+04	3.827242e+04	4.087306e+04	4.405809e+04	4.802742e+04	5.038494e+04	5.487418e+04	5.937470e+04	6.397533e+04	6.994815e+04	7.342321e+04	7.928465e+04	8.611220e+04	9.078480e+04	9.604084e+04	1.007313e+05	1.036559e+05	1.070866e+05	1.096682e+05	1.089130e+05	1.093295e+05	1.080848e+05	1.036304e+05	9.970511e+04	9.486296e+04	8.496214e+04	7.672064e+04	7.104932e+04	7.206329e+04	8.185182e+04	8.659269e+04	9.380592e+04	1.023643e+05	1.074563e+05	1.130282e+05	1.178549e+05	1.211346e+05	1.241288e+05	1.263720e+05	1.279266e+05	1.294764e+05	1.307987e+05	1.322247e+05	1.346664e+05	1.372604e+05	1.396767e+05	1.454915e+05	
SCALARS Temperature double 1
LOOKUP_TABLE default
2.940767e+02	2.814250e+02	2.744839e+02	2.649751e+02	2.564737e+02	2.519850e+02	2.490863e+02	2.465400e+02	2.431525e+02	2.371007e+02	2.285488e+02	2.215269e+02	2.288528e+02	2.624962e+02	2.833324e+02	2.887275e+02	2.923171e+02	2.940469e+02	2.947412e+02	2.943014e+02	2.932263e+02	2.918796e+02	2.898416e+02	2.876324e+02	2.849220e+02	2.817180e+02	2.784095e+02	2.747864e+02	2.705318e+02	2.664337e+02	2.621354e+02	2.557796e+02	2.508481e+02	2.467302e+02	2.411071e+02	2.360136e+02	2.286897e+02	2.220018e+02	2.177690e+02	2.123094e+02	2.081272e+02	2.037874e+02	2.001407e+02	1.982360e+02	1.966399e+02	1.944591e+02	1.935987e+02	1.945023e+02	2.125990e+02	2.656435e+02	2.836733e+02	2.856035e+02	2.872382e+02	2.882890e+02	2.892731e+02	2.898788e+02	2.904276e+02	2.906147e+02	2.907505e+02	2.908753e+02	2.907170e+02	2.904835e+02	2.898176e+02	2.889022e+02	2.880068e+02	2.866071e+02	2.849580e+02	2.833176e+02	2.813853e+02	2.795687e+02	2.780434e+02	2.767471e+02	2.776157e+02	2.793748e+02	2.809599e+02	2.831390e+02	2.849576e+02	2.867620e+02	2.881303e+02	2.890378e+02	2.898462e+02	2.903636e+02	2.908017e+02	2.912157e+02	2.914998e+02	2.917878e+02	2.920951e+02	2.923789e+02	2.926864e+02	2.930213e+02	2.933472e+02	2.936974e+02	2.940299e+02	2.943611e+02	2.947155e+02	2.950959e+02	2.955356e+02	2.959788e+02	2.967883e+02	2.955028e+02	2.876932e+02	2.891206e+02	2.890886e+02	2.892147e+02	2.893607e+02	2.894926e+02	2.895920e+02	2.897157e+02	2.898226e+02	2.899059e+02	2.900093e+02	2.900506e+02	2.901584e+02	2.901950e+02	2.902960e+02	2.904203e+02	2.903385e+02	2.902979e+02	2.900607e+02	2.897304e+02	2.893115e+02	2.883572e+02	2.872446e+02	2.861263e+02	2.848725e+02	2.840216e+02	2.833123e+02	2.832173e+02	2.838819e+02	2.846884e+02	2.859069e+02	2.871747e+02	2.880556e+02	2.891024e+02	2.900133e+02	2.902182e+02	2.904802e+02	2.904314e+02	2.900294e+02	2.895865e+02	2.886661e+02	2.877119e+02	2.867036e+02	2.853791e+02	2.839532e+02	2.824143e+02	2.805969e+02	2.801040e+02	2.790435e+02	2.699902e+02	2.342607e+02	2.103291e+02	2.069786e+02	2.112559e+02	2.158234e+02	2.208392e+02	2.243779e+02	2.295610e+02	2.353112e+02	2.405150e+02	2.461286e+02	2.503369e+02	2.553831e+02	2.614730e+02	2.657313e+02	2.697444e+02	2.734094e+02	2.759335e+02	2.782122e+02	2.801039e+02	2.801703e+02	2.799319e+02	2.794461e+02	2.766122e+02	2.731034e+02	2.695544e+02	2.621996e+02	2.535013e+02	2.488536e+02	2.487409e+02	2.562324e+02	2.617558e+02	2.671625e+02	2.735387e+02	2.782048e+02	2.819301e+02	2.853013e+02	2.878112e+02	2.897622e+02	2.913467e+02	2.924948e+02	2.935059e+02	2.945412e+02	2.956689e+02	2.972330e+02	2.992456e+02	3.011741e+02	3.019257e+02	
SCALARS Mach double 1
LOOKUP_TABLE default
3.712896e-01	6.073153e-01	7.103505e-01	8.379346e-01	9.440039e-01	9.980404e-01	1.032406e+00	1.062315e+00	1.101768e+00	1.171536e+00	1.269230e+00	1.349258e+00	1.265766e+00	8.694725e-01	5.767918e-01	4.827457e-01	4.108314e-01	3.719898e-01	3.553477e-01	3.659672e-01	3.908407e-01	4.201557e-01	4.614423e-01	5.029576e-01	5.503980e-01	6.027011e-01	6.534388e-01	7.060731e-01	7.648608e-01	8.190954e-01	8.740172e-01	9.524341e-01	1.011563e+00	1.060088e+00	1.125437e+00	1.183997e+00	1.267625e+00	1.343841e+00	1.392190e+00	1.454858e+00	1.503201e+00	1.553775e+00	1.596655e+00	1.619211e+00	1.638203e+00	1.664295e+00	1.674637e+00	1.663777e+00	1.451523e+00	8.293294e-01	5.712091e-01	5.387801e-01	5.100754e-01	4.909208e-01	4.724120e-01	4.607166e-01	4.498998e-01	4.461630e-01	4.434335e-01	4.409107e-01	4.441079e-01	4.487862e-01	4.619090e-01	4.794574e-01	4.961242e-01	5.213055e-01	5.497894e-01	5.770327e-01	6.079387e-01	6.359872e-01	6.588838e-01	6.779252e-01	6.652066e-01	6.389300e-01	6.145888e-01	5.799409e-01	5.497950e-01	5.185663e-01	4.938514e-01	4.768914e-01	4.613529e-01	4.511736e-01	4.424004e-01	4.339710e-01	4.281059e-01	4.220891e-01	4.155858e-01	4.095004e-01	4.028169e-01	3.954236e-01	3.881129e-01	3.801192e-01	3.723891e-01	3.645422e-01	3.559759e-01	3.465697e-01	3.353989e-01	3.237864e-01	3.015169e-01	3.362446e-01	5.018530e-01	4.753188e-01	4.759278e-01	4.735279e-01	4.707349e-01	4.682012e-01	4.662855e-01	4.638901e-01	4.618126e-01	4.601869e-01	4.581635e-01	4.573528e-01	4.552337e-01	4.545101e-01	4.525134e-01	4.500461e-01	4.516721e-01	4.524760e-01	4.571552e-01	4.636044e-01	4.716780e-01	4.896558e-01	5.099605e-01	5.297339e-01	5.512340e-01	5.654626e-01	5.771196e-01	5.786670e-01	5.677735e-01	5.543369e-01	5.335443e-01	5.112127e-01	4.952276e-01	4.756659e-01	4.580860e-01	4.540526e-01	4.488529e-01	4.498239e-01	4.577687e-01	4.663919e-01	4.838981e-01	5.015134e-01	5.195998e-01	5.426272e-01	5.665945e-01	5.916295e-01	6.202233e-01	6.278159e-01	6.439355e-01	7.721506e-01	1.204057e+00	1.477707e+00	1.516543e+00	1.467004e+00	1.414476e+00	1.357105e+00	1.316751e+00	1.257694e+00	1.192040e+00	1.132270e+00	1.067125e+00	1.017625e+00	9.572372e-01	8.823308e-01	8.281957e-01	7.754461e-01	7.254185e-01	6.896962e-01	6.563776e-01	6.278164e-01	6.267984e-01	6.304501e-01	6.378490e-01	6.798852e-01	7.296738e-01	7.779865e-01	8.732092e-01	9.799085e-01	1.035150e+00	1.036478e+00	9.469387e-01	8.787859e-01	8.095966e-01	7.236157e-01	6.564880e-01	5.993445e-01	5.439551e-01	4.997033e-01	4.629875e-01	4.312759e-01	4.069926e-01	3.845093e-01	3.602118e-01	3.319458e-01	2.886121e-01	2.216047e-01	1.295278e-01	6.549268e-02	
SCALARS Pressure_Coefficient double 1
LOOKUP_TABLE default