# vtk DataFile Version 3.0
vtk output
ASCII
DATASET UNSTRUCTURED_GRID
POINTS 1830 double
1.000000e+02	0.000000e+00	0.0	9.917900e+01	1.278772e+01	0.0	9.672949e+01	2.536546e+01	0.0	9.269168e+01	3.752670e+01	0.0	8.713187e+01	4.907176e+01	0.0	8.014136e+01	5.981105e+01	0.0	7.183494e+01	6.956826e+01	0.0	6.234898e+01	7.818315e+01	0.0	5.183926e+01	8.551428e+01	0.0	4.047833e+01	9.144126e+01	0.0	2.845276e+01	9.586679e+01	0.0	1.595999e+01	9.871818e+01	0.0	3.205158e+00	9.994862e+01	0.0	-9.602303e+00	9.953791e+01	0.0	-2.225209e+01	9.749279e+01	0.0	-3.453651e+01	9.384684e+01	0.0	-4.625383e+01	8.865993e+01	0.0	-5.721167e+01	8.201723e+01	0.0	-6.723009e+01	7.402780e+01	0.0	-7.614460e+01	6.482284e+01	0.0	-8.380881e+01	5.455349e+01	0.0	-9.009689e+01	4.338837e+01	0.0	-9.490557e+01	3.151082e+01	0.0	-9.815592e+01	1.911586e+01	0.0	-9.979454e+01	6.407022e+00	0.0	-9.979454e+01	-6.407022e+00	0.0	-9.815592e+01	-1.911586e+01	0.0	-9.490557e+01	-3.151082e+01	0.0	-9.009689e+01	-4.338837e+01	0.0	-8.380881e+01	-5.455349e+01	0.0	-7.614460e+01	-6.482284e+01	0.0	-6.723009e+01	-7.402780e+01	0.0	-5.721167e+01	-8.201723e+01	0.0	-4.625383e+01	-8.865993e+01	0.0	-3.453651e+01	-9.384684e+01	0.0	-2.225209e+01	-9.749279e+01	0.0	-9.602303e+00	-9.953791e+01	0.0	3.205158e+00	-9.994862e+01	0.0	1.595999e+01	-9.871818e+01	0.0	2.845276e+01	-9.586679e+01	0.0	4.047833e+01	-9.144126e+01	0.0	5.183926e+01	-8.551428e+01	0.0	6.234898e+01	-7.818315e+01	0.0	7.183494e+01	-6.956826e+01	0.0	8.014136e+01	-5.981105e+01	0.0	8.713187e+01	-4.907176e+01	0.0	9.269168e+01	-3.752670e+01	0.0	9.672949e+01	-2.536546e+01	0.0	9.917900e+01	-1.278772e+01	0.0	0.000000e+00	0.000000e+00	0.0	3.001663e-03	3.998753e-03	0.0	6.116103e-03	8.147745e-03	0.0	1.053011e-02	1.119715e-02	0.0	1.518507e-02	1.426837e-02	0.0	2.054402e-02	1.643779e-02	0.0	2.610989e-02	1.864484e-02	0.0	3.202868e-02	2.049587e-02	0.0	3.815784e-02	2.240127e-02	0.0	4.451301e-02	2.432548e-02	0.0	5.105873e-02	2.639461e-02	0.0	5.777175e-02	2.869422e-02	0.0	6.460083e-02	3.134290e-02	0.0	7.155531e-02	3.432662e-02	0.0	7.859655e-02	3.769709e-02	0.0	8.581190e-02	4.127256e-02	0.0	9.352454e-02	4.433597e-02	0.0	1.015599e-01	4.717683e-02	0.0	1.102333e-01	4.866479e-02	0.0	1.191855e-01	4.959277e-02	0.0	1.284684e-01	4.892236e-02	0.0	1.379896e-01	4.810996e-02	0.0	1.476466e-01	4.634659e-02	0.0	1.575538e-01	4.453751e-02	0.0	1.677395e-01	4.285398e-02	0.0	1.781857e-01	4.119934e-02	0.0	1.889034e-01	3.976145e-02	0.0	1.999687e-01	3.934978e-02	0.0	2.112773e-01	3.892907e-02	0.0	2.227833e-01	3.963994e-02	0.0	2.345020e-01	4.093481e-02	0.0	2.464268e-01	4.239206e-02	0.0	2.584277e-01	4.480615e-02	0.0	2.706401e-01	4.726275e-02	0.0	2.830045e-01	4.999660e-02	0.0	2.955237e-01	5.295687e-02	0.0	3.082282e-01	5.596096e-02	0.0	3.211413e-01	5.886437e-02	0.0	3.342207e-01	6.180429e-02	0.0	3.475068e-01	6.452594e-02	0.0	3.610024e-01	6.695626e-02	0.0	3.746312e-01	6.941059e-02	0.0	3.885116e-01	7.097350e-02	0.0	4.025117e-01	7.247252e-02	0.0	4.166422e-01	7.336661e-02	0.0	4.308994e-01	7.347492e-02	0.0	4.452238e-01	7.358374e-02	0.0	4.595464e-01	7.234768e-02	0.0	4.739049e-01	7.106990e-02	0.0	4.882286e-01	6.931927e-02	0.0	5.025020e-01	6.709524e-02	0.0	5.167674e-01	6.486948e-02	0.0	5.309214e-01	6.213740e-02	0.0	5.450384e-01	5.941248e-02	0.0	5.590953e-01	5.665475e-02	0.0	5.730775e-01	5.386604e-02	0.0	5.869795e-01	5.109331e-02	0.0	6.008585e-01	4.872263e-02	0.0	6.146318e-01	4.638249e-02	0.0	6.283399e-01	4.447389e-02	0.0	6.419822e-01	4.308713e-02	0.0	6.554777e-01	4.171530e-02	0.0	6.688791e-01	4.165877e-02	0.0	6.821146e-01	4.168971e-02	0.0	6.951526e-01	4.213761e-02	0.0	7.079781e-01	4.313746e-02	0.0	7.206046e-01	4.412181e-02	0.0	7.330216e-01	4.511877e-02	0.0	7.452235e-01	4.610113e-02	0.0	7.572209e-01	4.660821e-02	0.0	7.690107e-01	4.655228e-02	0.0	7.805550e-01	4.635267e-02	0.0	7.917452e-01	4.466713e-02	0.0	8.026946e-01	4.301783e-02	0.0	8.132196e-01	4.051987e-02	0.0	8.234605e-01	3.787720e-02	0.0	8.334084e-01	3.511958e-02	0.0	8.430713e-01	3.228135e-02	0.0	8.525102e-01	2.958854e-02	0.0	8.617743e-01	2.722115e-02	0.0	8.707916e-01	2.491682e-02	0.0	8.796329e-01	2.297620e-02	0.0	8.882434e-01	2.115901e-02	0.0	8.966214e-01	1.946128e-02	0.0	9.047826e-01	1.795233e-02	0.0	9.127010e-01	1.648826e-02	0.0	9.203873e-01	1.511174e-02	0.0	9.278380e-01	1.378758e-02	0.0	9.350529e-01	1.249389e-02	0.0	9.420338e-01	1.122113e-02	0.0	9.487883e-01	9.989328e-03	0.0	9.553149e-01	8.766618e-03	0.0	9.616236e-01	7.584703e-03	0.0	9.677147e-01	6.419539e-03	0.0	9.735963e-01	5.290110e-03	0.0	9.792697e-01	4.178041e-03	0.0	9.847425e-01	3.096512e-03	0.0	9.900181e-01	2.038001e-03	0.0	9.951009e-01	9.994680e-04	0.0	1.000000e+00	0.000000e+00	0.0	9.950064e-01	2.435564e-04	0.0	9.898220e-01	4.322088e-04	0.0	9.844431e-01	5.696475e-04	0.0	9.788654e-01	6.639092e-04	0.0	9.730846e-01	7.345396e-04	0.0	9.670957e-01	7.495263e-04	0.0	9.608945e-01	7.422159e-04	0.0	9.544765e-01	6.713552e-04	0.0	9.478374e-01	5.845139e-04	0.0	9.409741e-01	4.042165e-04	0.0	9.338809e-01	2.178799e-04	0.0	9.265576e-01	-8.118314e-05	0.0	9.189979e-01	-4.141681e-04	0.0	9.112054e-01	-8.812426e-04	0.0	9.031828e-01	-1.570010e-03	0.0	8.949142e-01	-2.279891e-03	0.0	8.864728e-01	-3.608909e-03	0.0	8.777934e-01	-5.057458e-03	0.0	8.689576e-01	-6.958066e-03	0.0	8.600152e-01	-9.534965e-03	0.0	8.508282e-01	-1.218237e-02	0.0	8.417427e-01	-1.589084e-02	0.0	8.324378e-01	-1.974090e-02	0.0	8.229368e-01	-2.377789e-02	0.0	8.132372e-01	-2.799136e-02	0.0	8.032650e-01	-3.219224e-02	0.0	7.927974e-01	-3.579950e-02	0.0	7.820998e-01	-3.948604e-02	0.0	7.708371e-01	-4.195844e-02	0.0	7.592415e-01	-4.408205e-02	0.0	7.473535e-01	-4.567256e-02	0.0	7.351304e-01	-4.631250e-02	0.0	7.226922e-01	-4.696371e-02	0.0	7.100325e-01	-4.680165e-02	0.0	6.971721e-01	-4.656323e-02	0.0	6.841255e-01	-4.618658e-02	0.0	6.709041e-01	-4.561791e-02	0.0	6.575127e-01	-4.504192e-02	0.0	6.439571e-01	-4.459483e-02	0.0	6.302536e-01	-4.415609e-02	0.0	6.164118e-01	-4.392532e-02	0.0	6.024435e-01	-4.399247e-02	0.0	5.883657e-01	-4.406015e-02	0.0	5.742207e-01	-4.493475e-02	0.0	5.599963e-01	-4.587330e-02	0.0	5.457571e-01	-4.731539e-02	0.0	5.315290e-01	-4.936720e-02	0.0	5.172636e-01	-5.142439e-02	0.0	5.031041e-01	-5.423080e-02	0.0	4.889426e-01	-5.707004e-02	0.0	4.748163e-01	-6.003936e-02	0.0	4.607467e-01	-6.316695e-02	0.0	4.467140e-01	-6.628635e-02	0.0	4.326991e-01	-6.923906e-02	0.0	4.187472e-01	-7.216482e-02	0.0	4.048282e-01	-7.482061e-02	0.0	3.909329e-01	-7.708085e-02	0.0	3.771456e-01	-7.932352e-02	0.0	3.633583e-01	-8.054837e-02	0.0	3.496915e-01	-8.164269e-02	0.0	3.361591e-01	-8.206736e-02	0.0	3.227667e-01	-8.151303e-02	0.0	3.095444e-01	-8.096575e-02	0.0	2.966895e-01	-7.876644e-02	0.0	2.840413e-01	-7.642738e-02	0.0	2.716828e-01	-7.372293e-02	0.0	2.596938e-01	-7.034708e-02	0.0	2.479122e-01	-6.702965e-02	0.0	2.364149e-01	-6.353573e-02	0.0	2.251610e-01	-6.002607e-02	0.0	2.141206e-01	-5.662102e-02	0.0	2.032019e-01	-5.365231e-02	0.0	1.925181e-01	-5.074744e-02	0.0	1.820078e-01	-4.817450e-02	0.0	1.716618e-01	-4.598490e-02	0.0	1.615620e-01	-4.384744e-02	0.0	1.516470e-01	-4.209345e-02	0.0	1.419709e-01	-4.044398e-02	0.0	1.325390e-01	-3.888031e-02	0.0	1.233396e-01	-3.747426e-02	0.0	1.143912e-01	-3.610659e-02	0.0	1.056962e-01	-3.475505e-02	0.0	9.725069e-02	-3.343382e-02	0.0	8.905548e-02	-3.212647e-02	0.0	8.111709e-02	-3.077785e-02	0.0	7.341932e-02	-2.947011e-02	0.0	6.598708e-02	-2.804960e-02	0.0	5.879354e-02	-2.664426e-02	0.0	5.186704e-02	-2.511123e-02	0.0	4.519015e-02	-2.351234e-02	0.0	3.879084e-02	-2.175213e-02	0.0	3.264818e-02	-1.989132e-02	0.0	2.682355e-02	-1.777202e-02	0.0	2.125240e-02	-1.557906e-02	0.0	1.604347e-02	-1.307097e-02	0.0	1.115175e-02	-1.040260e-02	0.0	6.587186e-03	-7.562668e-03	0.0	2.629388e-03	-4.208649e-03	0.0	-3.296247e-02	2.165147e-02	0.0	-3.437933e-02	3.759587e-02	0.0	-4.865087e-02	2.133407e-02	0.0	8.684206e+01	2.702190e+01	0.0	8.233564e+01	3.607599e+01	0.0	7.716689e+01	2.669916e+01	0.0	7.573525e+01	-1.256385e+01	0.0	7.569586e+01	-2.509350e+01	0.0	8.709564e+01	-1.789777e+01	0.0	8.671211e+01	-4.305598e+00	0.0	3.572912e+01	2.200678e+01	0.0	4.543584e+01	2.792863e+01	0.0	3.703693e+01	3.529874e+01	0.0	7.281248e+01	3.424807e+01	0.0	6.859184e+01	-3.622249e+01	0.0	7.555834e+01	-4.400971e+01	0.0	8.114431e+01	-3.659257e+01	0.0	8.667140e+01	-2.849520e+01	0.0	5.393710e+01	2.212484e+01	0.0	4.476902e+01	1.686091e+01	0.0	5.218418e+01	1.249309e+01	0.0	5.561298e+01	-5.392710e+01	0.0	6.219848e+01	-6.021641e+01	0.0	6.561128e+01	-5.480069e+01	0.0	6.851578e+01	6.011753e+01	0.0	7.238178e+01	5.097834e+01	0.0	6.030715e+01	6.658038e+01	0.0	4.865582e+01	-6.453347e+01	0.0	4.585558e+01	-7.393365e+01	0.0	5.470959e+01	-7.229510e+01	0.0	6.632965e+01	-4.685906e+01	0.0	5.098115e+01	7.376462e+01	0.0	3.451171e+01	5.864441e+01	0.0	2.988005e+01	6.359627e+01	0.0	2.670722e+01	5.620641e+01	0.0	6.290038e+01	-6.768045e+01	0.0	3.144357e+01	7.934605e+01	0.0	3.884393e+01	6.826726e+01	0.0	4.231968e+01	7.980373e+01	0.0	3.710538e+01	-6.706599e+01	0.0	2.619900e+01	-7.472946e+01	0.0	3.841026e+01	-8.003088e+01	0.0	6.745359e+00	4.988929e+01	0.0	-3.002397e+00	4.438589e+01	0.0	6.076762e+00	3.949113e+01	0.0	4.409643e-01	-7.386236e-02	0.0	4.472060e-01	-7.865761e-02	0.0	4.977032e-01	-6.322249e-02	0.0	4.881208e-01	-6.806077e-02	0.0	4.995098e-01	-7.297036e-02	0.0	4.560132e-01	-7.390003e-02	0.0	5.264684e-01	-1.108839e-01	0.0	5.242696e-01	-1.340664e-01	0.0	5.430428e-01	-1.176171e-01	0.0	9.333671e-01	4.020539e-02	0.0	9.371564e-01	5.473393e-02	0.0	9.237967e-01	4.587013e-02	0.0	9.689629e-01	1.073600e-01	0.0	9.402434e-01	9.442024e-02	0.0	9.553276e-01	7.258435e-02	0.0	9.261711e-01	2.003255e-02	0.0	9.311994e-01	1.764166e-02	0.0	9.316487e-01	2.303820e-02	0.0	1.283547e-01	-4.567620e-02	0.0	-1.633731e-01	1.161409e+00	0.0	-3.584072e-01	7.649959e-01	0.0	-5.730392e-02	8.404202e-01	0.0	2.785620e-01	5.832932e-02	0.0	2.803412e-01	6.980564e-02	0.0	2.685483e-01	6.222647e-02	0.0	2.888356e-01	6.085119e-02	0.0	2.986410e-01	6.196419e-02	0.0	2.941562e-01	7.171043e-02	0.0	2.558834e-01	6.422602e-02	0.0	2.511712e-01	5.279895e-02	0.0	2.609208e-01	5.438901e-02	0.0	4.141009e-01	-8.389935e-02	0.0	7.554392e-01	6.5380
[...]
POINT_DATA 1830

SCALARS Density double 1
LOOKUP_TABLE default
1.291383e+00	1.291452e+00	1.291990e+00	1.292259e+00	1.292205e+00	1.292139e+00	1.292126e+00	1.292112e+00	1.292087e+00	1.292066e+00	1.292054e+00	1.292052e+00	1.292065e+00	1.292098e+00	1.292145e+00	1.292189e+00	1.292228e+00	1.292255e+00	1.292276e+00	1.292289e+00	1.292299e+00	1.292306e+00	1.292311e+00	1.292315e+00	1.292320e+00	1.292325e+00	1.292330e+00	1.292338e+00	1.292348e+00	1.292360e+00	1.292376e+00	1.292396e+00	1.292421e+00	1.292451e+00	1.292484e+00	1.292523e+00	1.292555e+00	1.292578e+00	1.292575e+00	1.292554e+00	1.292519e+00	1.292478e+00	1.292437e+00	1.292395e+00	1.292348e+00	1.292322e+00	1.292365e+00	1.292260e+00	1.291823e+00	1.639617e+00	1.391877e+00	1.313203e+00	1.201648e+00	1.169414e+00	1.154719e+00	1.205205e+00	1.234164e+00	1.269059e+00	1.292942e+00	1.310567e+00	1.319481e+00	1.312803e+00	1.286563e+00	1.238684e+00	1.124666e+00	1.001669e+00	8.467799e-01	7.095685e-01	5.750207e-01	4.913561e-01	4.355191e-01	4.169308e-01	5.202033e-01	8.638402e-01	1.081080e+00	1.103679e+00	1.111765e+00	1.115833e+00	1.124619e+00	1.116858e+00	1.117848e+00	1.111681e+00	1.099411e+00	1.090486e+00	1.075134e+00	1.054177e+00	1.033398e+00	1.008755e+00	9.760645e-01	9.478234e-01	9.019893e-01	8.590401e-01	8.255293e-01	7.717925e-01	7.380259e-01	6.794198e-01	6.247949e-01	6.150218e-01	6.638630e-01	8.695379e-01	9.950015e-01	1.030126e+00	1.059539e+00	1.078144e+00	1.095528e+00	1.111427e+00	1.122721e+00	1.129444e+00	1.139127e+00	1.139714e+00	1.144419e+00	1.146163e+00	1.137593e+00	1.135351e+00	1.127365e+00	1.113580e+00	1.103116e+00	1.085206e+00	1.066058e+00	1.062854e+00	1.049504e+00	1.058577e+00	1.080347e+00	1.093657e+00	1.117669e+00	1.130867e+00	1.143675e+00	1.154641e+00	1.160808e+00	1.165473e+00	1.170051e+00	1.171224e+00	1.174058e+00	1.175945e+00	1.177188e+00	1.178946e+00	1.180330e+00	1.181348e+00	1.183286e+00	1.183952e+00	1.185334e+00	1.186216e+00	1.187141e+00	1.188005e+00	1.188464e+00	1.187430e+00	1.194580e+00	1.167438e+00	1.222789e+00	1.338185e+00	1.314880e+00	1.318162e+00	1.324576e+00	1.327722e+00	1.331375e+00	1.334673e+00	1.338574e+00	1.341521e+00	1.345391e+00	1.349196e+00	1.353031e+00	1.360124e+00	1.360761e+00	1.370209e+00	1.373109e+00	1.370412e+00	1.378297e+00	1.367676e+00	1.367882e+00	1.360533e+00	1.332350e+00	1.312667e+00	1.278809e+00	1.228473e+00	1.187433e+00	1.112600e+00	1.045641e+00	1.015163e+00	9.841405e-01	1.009201e+00	1.036835e+00	1.072028e+00	1.120715e+00	1.146886e+00	1.177451e+00	1.206500e+00	1.226563e+00	1.244860e+00	1.263279e+00	1.271433e+00	1.288204e+00	1.295516e+00	1.296428e+00	1.305062e+00	1.296081e+00	1.295114e+00	1.287916e+00	1.268738e+00	1.259399e+00	1.243551e+00	1.218820e+00	1.232447e+00	9.424778e-01	6.487972e-01	5.940779e-01	6.080425e-01	6.444859e-01	6.810648e-01	7.110686e-01	7.763938e-01	8.169611e-01	8.987204e-01	1.012620e+00	1.051112e+00	1.118408e+00	1.185163e+00	1.226720e+00	1.272593e+00	1.316437e+00	1.339905e+00	1.355026e+00	1.376148e+00	1.378857e+00	1.385829e+00	1.389901e+00	1.383456e+00	1.384124e+00	1.381158e+00	1.375788e+00	1.373496e+00	1.371828e+00	1.368848e+00	1.369650e+00	1.367462e+00	1.367534e+00	1.369309e+00	1.369829e+00	1.374901e+00	1.382140e+00	1.390933e+00	1.408431e+00	1.429657e+00	1.455842e+00	1.492685e+00	1.527804e+00	1.551328e+00	1.638189e+00	1.455407e+00	1.423161e+00	1.439538e+00	1.292110e+00	1.292181e+00	1.292085e+00	1.292027e+00	1.292267e+00	1.292102e+00	1.291723e+00	1.292116e+00	1.292096e+00	1.291999e+00	1.292129e+00	1.292327e+00	1.292316e+00	1.292296e+00	1.292279e+00	1.292090e+00	1.291988e+00	1.291829e+00	1.292385e+00	1.292388e+00	1.292362e+00	1.292112e+00	1.292126e+00	1.292096e+00	1.292443e+00	1.292474e+00	1.292442e+00	1.292330e+00	1.292076e+00	1.291994e+00	1.291980e+00	1.291943e+00	1.292408e+00	1.292022e+00	1.292030e+00	1.292055e+00	1.292498e+00	1.292556e+00	1.292512e+00	1.291794e+00	1.291767e+00	1.291620e+00	1.218407e+00	1.203242e+00	1.263857e+00	1.254729e+00	1.263804e+00	1.210153e+00	1.275568e+00	1.275968e+00	1.281526e+00	1.206282e+00	1.224780e+00	1.212207e+00	1.277894e+00	1.263451e+00	1.250660e+00	1.183821e+00	1.184156e+00	1.188407e+00	1.379573e+00	1.271350e+00	1.289410e+00	1.263971e+00	1.107142e+00	1.122204e+00	1.121535e+00	1.096890e+00	1.081685e+00	1.104389e+00	1.139665e+00	1.125336e+00	1.119367e+00	6.416973e-01	1.109973e+00	1.089004e+00	1.082312e+00	1.076249e+00	1.188783e+00	1.185760e+00	1.164818e+00	1.329191e+00	1.326383e+00	1.327504e+00	1.231641e+00	1.212926e+00	1.212639e+00	1.186469e+00	1.188997e+00	1.185252e+00	1.180782e+00	1.181413e+00	1.191485e+00	1.195345e+00	1.190508e+00	1.189158e+00	1.249732e+00	1.238408e+00	1.187827e+00	1.199369e+00	1.195622e+00	1.376844e+00	1.375827e+00	1.377232e+00	1.218425e+00	1.254382e+00	1.263156e+00	1.315134e+00	1.301840e+00	1.329380e+00	1.339010e+00	1.331838e+00	1.350644e+00	1.118005e+00	1.161872e+00	1.180087e+00	1.337250e+00	1.346475e+00	1.325899e+00	1.365478e+00	1.093130e+00	1.043415e+00	1.063631e+00	1.367388e+00	1.371527e+00	1.370116e+00	1.312665e+00	1.290664e+00	1.264228e+00	1.024716e+00	1.370408e+00	1.364413e+00	1.368737e+00	1.366363e+00	1.370047e+00	1.346050e+00	1.349016e+00	1.353968e+00	1.353566e+00	1.356111e+00	1.357687e+00	1.350798e+00	1.347388e+00	1.349749e+00	1.344167e+00	1.341618e+00	1.343948e+00	1.244001e+00	1.179014e+00	1.238181e+00	7.362289e-01	6.470762e-01	5.989205e-01	1.188241e+00	1.104090e+00	1.102546e+00	1.002209e+00	1.067515e+00	1.293093e+00	1.267711e+00	1.271240e+00	1.216024e+00	4.610373e-01	1.190507e+00	1.218364e+00	1.235000e+00	1.239915e+00	1.166019e+00	1.202770e+00	1.198287e+00	1.208787e+00	1.187974e+00	1.279741e+00	1.281064e+00	1.272724e+00	1.208273e+00	1.195948e+00	1.212369e+00	1.209729e+00	1.263388e+00	1.292027e+00	1.248263e+00	1.287215e+00	1.272445e+00	1.180988e+00	1.180038e+00	1.172783e+00	1.278444e+00	1.273995e+00	1.270104e+00	6.475870e-01	6.089636e-01	6.546185e-01	1.108133e+00	1.138915e+00	1.097443e+00	1.135557e+00	1.143418e+00	1.129258e+00	9.797817e-01	1.011525e+00	1.052724e+00	1.078359e+00	1.040992e+00	1.129717e+00	1.003349e+00	9.587629e-01	9.467072e-01	1.006289e+00	1.088551e+00	1.049466e+00	8.785543e-01	8.398807e-01	1.099071e+00	1.087057e+00	9.853187e-01	9.363190e-01	8.951631e-01	1.124226e+00	7.218828e-01	7.198623e-01	6.674974e-01	6.460857e-01	7.201098e-01	6.456581e-01	1.074363e+00	1.058469e+00	9.687902e-01	1.291536e+00	1.298013e+00	1.291555e+00	1.289101e+00	1.286722e+00	1.288993e+00	1.288790e+00	1.292289e+00	1.291876e+00	1.291884e+00	1.291780e+00	1.292032e+00	1.291987e+00	1.285860e+00	1.261798e+00	1.272078e+00	1.169740e+00	1.156360e+00	1.164575e+00	6.492006e-01	1.282029e+00	1.271885e+00	1.278565e+00	1.254411e+00	1.100026e+00	1.243590e+00	1.294427e+00	1.288679e+00	1.160813e+00	1.169460e+00	1.153545e+00	1.265192e+00	1.267951e+00	8.094864e-01	9.007281e-01	8.583571e-01	1.280520e+00	1.234484e+00	8.457464e-01	7.977056e-01	8.760270e-01	7.578834e-01	1.257492e+00	1.259169e+00	1.218471e+00	1.211730e+00	1.194555e+00	1.374386e+00	1.364295e+00	1.371393e+00	1.368836e+00	1.377788e+00	1.373207e+00	1.375527e+00	1.375438e+00	1.377078e+00	1.381303e+00	1.380032e+00	1.387294e+00	1.099782e+00	1.093744e+00	1.339645e+00	1.333444e+00	1.331038e+00	1.338888e+00	1.085075e+00	1.096661e+00	1.058897e+00	1.122321e+00	1.400776e+00	1.388907e+00	1.377224e+00	1.381743e+00	1.379350e+00	1.415950e+00	1.398738e+00	1.437246e+00	1.412412e+00	1.419830e+00	1.218274e+00	1.293431e+00	1.260701e+00	1.276956e+00	1.244987e+00	1.269228e+00	1.181618e+00	1.168622e+00	1.135189e+00	8.229509e-01	9.030607e-01	1.292578e+00	1.292546e+00	9.678061e-01	1.294465e+00	1.294797e+00	1.295164e+00	1.298202e+00	1.278927e+00	1.263910e+00	1.292619e+00	1.292617e+00	1.292569e+00	1.292625e+00	1.314987e+00	1.335849e+00	1.348930e+00	1.292561e+00	1.292505e+00	1.292509e+00	1.342945e+00	1.333580e+00	1.348303e+00	1.293573e+00	1.293139e+00	1.293316e+00	1.373353e+00	1.077617e+00	1.158906e+00	1.148453e+00	1.129193e+00	1.165952e+00	1.148909e+00	1.149451e+00	1.140730e+00	1.181239e+00	1.112549e+00	1.149576e+00	1.153896e+00	1.160907e+00	1.120962e+00	1.134315e+00	1.147029e+00	1.144344e+00	1.146880e+00	1.202639e+00	1.147929e+00	1.138224e+00	1.143468e+00	1.118367e+00	1.128154e+00	1.151452e+00	1.291414e+00	1.290851e+00	1.291661e+00	1.287035e+00	1.114882e+00	1.106708e+00	1.332868e+00	1.312857e+00	1.307698e+00	1.296118e+00	1.295477e+00	1.360254e+00	1.332577e+00	1.341385e+00	1.060467e+00	1.073508e+00	1.101400e+00	1.110661e+00	1.083688e+00	1.213378e+00	1.234790e+00	1.176107e+00	1.292140e+00	1.292089e+00	1.114666e+00	1.095761e+00	1.032265e+00	1.051292e+00	1.292097e+00	1.251461e+00	1.243733e+00	1.292169e+00	6.827535e-01	8.944410e-01	7.881831e-01	1.298665e+00	1.293157e+00	1.292078e+00	1.291868e+00	1.312364e+00	1.292208e+00	1.292276e+00	1.291927e+00	1.292061e+00	1.291680e+00	1.292005e+00	1.292224e+00	1.292538e+00	1.292730e+00	1.292505e+00	1.292287e+00	1.292291e+00	1.292276e+00	1.290745e+00	1.291392e+00	1.291353e+00	1.290220e+00	1.291151e+00	1.289412e+00	1.292322e+00	1.292313e+00	1.292323e+00	1.292305e+00	1.292302e+00	1.292332e+00	1.292343e+00	1.292347e+00	1.292366e+00	1.292391e+00	1.292378e+00	1.292464e+00	1.292421e+00	1.292421e+00	1.292383e+00	1.292361e+00	1.292444e+00	1.292419e+00	1.292397e+00	1.292423e+00	1.292464e+00	1.293264e+00	1.293317e+00	1.292665e+00	1.292446e+00	1.294217e+00	1.294064e+00	1.292497e+00	1.293008e+00	1.293100e+00	1.293497e+00	1.461246e+00	1.446923e+00	1.465958e+00	1.542757e+00	1.561149e+00	1.575658e+00	1.556597e+00	1.589020e+00	1.583819e+00	1.258985e+00	1.325718e+00	1.323470e+00	1.316202e+00	1.312500e+00	1.430210e+00	1.426242e+00	1.482454e+00	1.292633e+00	1.292614e+00	1.292666e+00	1.295298e+00	1.297309e+00	1.295451e+00	1.292898e+00	1.292730e+00	1.292741e+00	1.293990e+00	1.292328e+00	1.300654e+00	1.297854e+00	1.305881e+00	1.169710e+00	9.722624e-01	1.121102e+00	1.291906e+00	1.292136e+00	1.291925e+00	1.296472e+00	1.296869e+00	1.293707e+00	1.333679e+00	1.292670e+00	1.292916e+00	1.292536e+00	1.292679e+00	1.292592e+00	1.292371e+00	1.292352e+00	1.292345e+00	1.292270e+00	1.292585e+00	1.292551e+00	1.292747e+00	1.292760e+00	1.291686e+00	1.291553e+00	1.291933e+00	1.291785e+00	1.292373e+00	1.292332e+00	1.292072e+00	1.291853e+00	1.291886e+00	1.292718e+00	1.292869e+00	1.292978e+00	1.293772e+00	1.329620e+00	1.309290e+00	1.292304e+00	1.292301e+00	1.292323e+00	1.292884e+00	1.292643e+00	1.344622e+00	1.335238e+00	1.357273e+00	1.292060e+00	1.291926e+00	1.291692e+00	1.291762e+00	1.290060e+00	1.290745e+00	1.290366e+00	1.291520e+00	1.292440e+00	1.292352e+00	1.292313e+00	1.292491e+00	1.292402e+00	1.292409e+00	1.292350e+00	1.292278e+00	1.292028e+00	1.292045e+00	1.292009e+00	1.292651e+00	1.292665e+00	1.292148e+00	1.292116e+00	1.292073e+00	1.292049e+00	1.291963e+00	1.292059e+00	1.291767e+00	1.291862e+00	1.292192e+00	1.292322e+00	1.292379e+00	1.292447e+00	1.292446e+00	1.292457e+00	1.292513e+00	1.292109e+00	1.292163e+00	1.292209e+00	1.292312e+00	1.223140e+00	1.186883e+00	1.275240e+00	1.290817e+00	1.291592e+00	1.291864e+00	1.292775e+00	1.292592e+00	1.292646e+00	1.292102e+00	1.292169e+00	1.292124e+00	1.292265e+00	1.292396e+00	1.292446e+00	1.292553e+00	1.291670e+00	1.293575e+00	1.293059e+00	1.293113e+00	1.291886e+00	1.292564e+00	1.292854e+00	1.293993e+00	1.293385e+00	1.292552e+00	1.292409e+00	1.292057e+00	1.292038e+00	1.291997e+00	1.292343e+00	1.292316e+00	1.292363e+00	1.292376e+00	1.292389e+00	1.292217e+00	1.292252e+00	1.292592e+00	1.291989e+00	1.292530e+00	1.292637e+00	1.292679e+00	1.292591e+00	1.291807e+00	1.291740e+00	1.292610e+00	1.292306e+00	1.292148e+00	1.292331e+00	1.292413e+00	1.292338e+00	1.292358e+00	1.291557e+00	1.292437e+00	1.292660e+00	1.292136e+00	1.292258e+00	1.292029e+00	1.291952e+00	1.291926e+00	1.291955e+00	1.291723e+00	1.292711e+00	1.292459e+00	1.292548e+00	1.292028e+00	1.291308e+00	1.292709e+00	1.292460e+00	1.292445e+00	1.292152e+00	1.292374e+00	1.292739e+00	1.170056e+00	1.191011e+00	1.167108e+00	1.292479e+00	1.292230e+00	1.292350e+00	1.291452e+00	1.291310e+00	1.291860e+00	1.291870e+00	1.291786e+00	1.292517e+00	1.292576e+00	1.292634e+00	1.292061e+00	1.292544e+00	1.292509e+00	1.291965e+00	1.292359e+00	1.292248e+00	1.292612e+00	1.292197e+00	1.291932e+00	1.291962e+00	1.292366e+00	1.292694e+00	1.292399e+00	1.331389e+00	1.459351e+00	1.489980e+00	1.478122e+00	1.292510e+00	1.293202e+00	1.292374e+00	1.292775e+00	1.291795e+00	1.289946e+00	1.292507e+00	1.291929e+00	1.294303e+00	1.255438e+00	1.299841e+00	1.268413e+00	1.291812e+00	1.291632e+00	1.290207e+00	1.294211e+00	1.293516e+00	1.293416e+00	1.293762e+00	1.253314e+00	1.291226e+00	1.289683e+00	1.292130e+00	1.288559e+00	1.288985e+00	1.291900e+00	1.224550e+00	1.270933e+00	1.294522e+00	1.293969e+00	1.379080e+00	1.382353e+00	1.383604e+00	1.291494e+00	1.292143e+00	1.289871e+00	1.285609e+00	1.292719e+00	1.317733e+00	1.325439e+00	1.316672e+00	1.288970e+00	1.290849e+00	1.292122e+00	1.292471e+00	1.305152e+00	1.291319e+00	1.294389e+00	1.307254e+00	1.303032e+00	1.306978e+00	1.180284e+00	1.226665e+00	1.199229e+00	1.293996e+00	1.293302e+00	1.296117e+00	1.297606e+00	1.291735e+00	1.295831e+00	1.287429e+00	1.294459e+00	8.272809e-01	1.286341e+00	1.204564e+00	1.221077e+00	1.293314e+00	1.283597e+00	1.293846e+00	1.301073e+00	1.303882e+00	1.286885e+00	1.281278e+00	1.291307e+00	1.299061e+00	1.292662e+00	1.273383e+00	1.284138e+00	1.297994e+00	1.292763e+00	1.294313e+00	1.291511e+00	1.296951e+00	1.320906e+00	1.297358e+00	1.294893e+00	1.294840e+00	1.301105e+00	6.103382e-01	9.981199e-01	7.580716e-01	1.280708e+00	1.288625e+00	1.299885e+00	1.288151e+00	1.304236e+00	1.309540e+00	1.303171e+00	1.271950e+00	1.257010e+00	1.205809e+00	1.195180e+00	1.202301e+00	1.320447e+00	1.333571e+00	1.299327e+00	1.294537e+00	1.302064e+00	1.298944e+00	1.280874e+00	1.283419e+00	1.285669e+00	1.282983e+00	1.291758e+00	1.300218e+00	1.297532e+00	1.291166e+00	1.293120e+00	1.289920e+00	1.429607e+00	1.438871e+00	1.285744e+00	1.304876e+00	1.314297e+00	1.310198e+00	1.270522e+00	1.276751e+00	1.244869e+00	1.285721e+00	1.305707e+00	1.296024e+00	1.305446e+00	1.307687e+00	1.314851e+00	1.313788e+00	1.234852e+00	1.303680e+00	1.277477e+00	1.283881e+00	1.281140e+00	1.261506e+00	1.302596e+00	1.287314e+00	1.269270e+00	1.298747e+00	1.311896e+00	1.545746e+00	1.588757e+00	1.571651e+00	1.280089e+00	1.292572e+00	1.297043e+00	1.296819e+00	1.293341e+00	1.332430e+00	1.315700e+00	1.206770e+00	1.207571e+00	1.250719e+00	1.290112e+00	1.300815e+00	1.301324e+00	1.271881e+00	1.360330e+00	1.284676e+00	1.258954e+00	1.335603e+00	1.355333e+00	1.306426e+00	1.306824e+00	1.308338e+00	1.316270e+00	1.290017e+00	1.294470e+00	1.303205e+00	1.288877e+00	1.286588e+00	1.241388e+00	1.255323e+00	1.208698e+00	1.326103e+00	1.347737e+00	1.387955e+00	1.401008e+00	1.422038e+00	1.350298e+00	1.336520e+00	1.168503e+00	1.187374e+00	1.197937e+00	1.152592e+00	1.311456e+00	1.303838e+00	1.336326e+00	1.335211e+00	1.320406e+00	1.294737e+00	1.300351e+00	1.281257e+00	1.294869e+00	1.315583e+00	1.312887e+00	1.320758e+00	1.259355e+00	1.265735e+00	1.284683e+00	1.297456e+00	1.113724e+00	1.248307e+00	1.320914e+00	1.266082e+00	1.169133e+00	1.294019e+00	1.061191e+00	1.090684e+00	1.033741e+00	1.411837e+00	1.402821e+00	1.431176e+00	1.342485e+00	1.326518e+00	1.315120e+00	1.307723e+00	1.304967e+00	1.197884e+00	1.136354e+00	1.317164e+00	1.073284e+00	1.051990e+00	1.146361e+00	1.218604e+00	1.191864e+00	1.387503e+00	1.464550e+00	1.408027e+00	1.419869e+00	1.407933e+00	1.444406e+00	1.374321e+00	1.427991e+00	1.284018e+00	1.330886e+00	1.327754e+00	1.324819e+00	1.224087e+00	1.207435e+00	1.264875e+00	1.315878e+00	1.316795e+00	1.326749e+00	1.140834e+00	1.204610e+00	1.154395e+00	1.148547e+00	1.197624e+00	1.172675e+00	1.247871e+00	1.250609e+00	1.215774e+00	1.232421e+00	1.220691e+00	1.318335e+00	1.321282e+00	1.349510e+00	1.306016e+00	1.234230e+00	1.266798e+00	1.287960e+00	1.224534e+00	1.297676e+00	1.293316e+00	1.295471e+00	1.319018e+00	1.269599e+00	1.285146e+00	1.231928e+00	1.248439e+00	1.165795e+00	1.188339e+00	1.366322e+00	1.374044e+00	1.443676e+00	1.416438e+00	1.268891e+00	1.129971e+00	1.153225e+00	1.139778e+00	1.043710e+00	9.900854e-01	1.362733e+00	1.317442e+00	1.302013e+00	1.249132e+00	1.322853e+00	1.351884e+00	1.371063e+00	1.369224e+00	1.321527e+00	1.247794e+00	1.222594e+00	1.239773e+00	1.179055e+00	1.325322e+00	1.143532e+00	1.129608e+00	1.208727e+00	1.232145e+00	1.366953e+00	1.355521e+00	7.116427e-01	8.435324e-01	1.253663e+00	1.309563e+00	1.138508e+00	1.268504e+00	1.224743e+00	1.232761e+00	1.207669e+00	1.348068e+00	1.381841e+00	1.404216e+00	1.141904e+00	1.039703e+00	1.056874e+00	1.382133e+00	1.273669e+00	1.214987e+00	1.193461e+00	1.220392e+00	1.229814e+00	1.240771e+00	1.326810e+00	1.295656e+00	1.264941e+00	1.290271e+00	1.168240e+00	1.182622e+00	1.230607e+00	1.315598e+00	1.327930e+00	1.045919e+00	1.107353e+00	1.323441e+00	1.363660e+00	1.365775e+00	1.173658e+00	1.126525e+00	1.086118e+00	9.589102e-01	1.065680e+00	1.372995e+00	1.322891e+00	1.291982e+00	1.206458e+00	1.180417e+00	1.207762e+00	8.874025e-01	9.472524e-01	8.470915e-01	9.059282e-01	9.859753e-01	4.553916e-01	4.964448e-01	1.254240e+00	1.258966e+00	1.317465e+00	1.314201e+00	1.321564e+00	1.288448e+00	1.220565e+00	1.115741e+00	1.167098e+00	1.293128e+00	1.217126e+00	1.214816e+00	1.222808e+00	8.452719e-01	9.302001e-01	8.667612e-01	1.043579e+00	1.492633e+00	1.125254e+00	1.159835e+00	1.151653e+00	1.203955e+00	1.216845e+00	1.260956e+00	9.362803e-01	8.138941e-01	8.559210e-01	1.259243e+00	1.253393e+00	1.244187e+00	1.216456e+00	1.144261e+00	1.129977e+00	1.313369e+00	1.085220e+00	1.208391e+00	1.057592e+00	1.102879e+00	1.337482e+00	1.163757e+00	1.379153e+00	1.386669e+00	1.138531e+00	1.127898e+00	1.073330e+00	1.481197e+00	1.445681e+00	1.195455e+00	1.192695e+00	1.240060e+00	1.154484e+00	1.163650e+00	1.131559e+00	1.330890e+00	1.339176e+00	1.360661e+00	1.359166e+00	1.343448e+00	1.126513e+00	1.056021e+00	1.119478e+00	1.178433e+00	1.174312e+00	1.253805e+00	1.375167e+00	1.187925e+00	1.190437e+00	1.205273e+00	1.392674e+00	1.260230e+00	1.332058e+00	1.281988e+00	8.794359e-01	8.108540e-01	7.655180e-01	7.489538e-01	7.008543e-01	1.178030e+00	1.153642e+00	9.595432e-01	1.019881e+00	1.278522e+00	1.201619e+00	1.235348e+00	1.323588e+00	1.332758e+00	1.321877e+00	1.235776e+00	1.091399e+00	1.244285e+00	1.060462e+00	1.235781e+00	9.054920e-01	1.288183e+00	1.287153e+00	1.292083e+00	1.276313e+00	1.201067e+00	1.162790e+00	1.404179e+00	1.411012e+00	1.272056e+00	1.319362e+00	1.336785e+00	1.338672e+00	1.346987e+00	1.193798e+00	1.210511e+00	8.780283e-01	1.353343e+00	1.476265e+00	1.169422e+00	9.842900e-01	1.020537e+00	8.197186e-01	1.427796e+00	1.405780e+00	1.433903e+00	1.184622e+00	7.055605e-01	1.166927e+00	7.273562e-01	1.022600e+00	9.121391e-01	1.223818e+00	6.876496e-01	1.426520e+00	1.428479e+00	1.286293e+00	1.384219e+00	1.265696e+00	6.952664e-01	9.817398e-01	1.023198e+00	1.113870e+00	9.812982e-01	1.289389e+00	1.400083e+00	9.072403e-01	1.277302e+00	1.366451e+00	1.363636e+00	1.355829e+00	1.235981e+00	1.181585e+00	1.170884e+00	1.249535e+00	1.023477e+00	1.167747e+00	1.002202e+00	9.307461e-01	9.805973e-01	9.020031e-01	1.280018e+00	1.216615e+00	1.226100e+00	1.188309e+00	1.217992e+00	8.876197e-01	1.352106e+00	1.342154e+00	1.128321e+00	1.140060e+00	1.080244e+00	1.237702e+00	1.248031e+00	1.256941e+00	1.268861e+00	1.269700e+00	1.176472e+00	1.138929e+00	1.110365e+00	1.184024e+00	1.236681e+00	1.214537e+00	1.199564e+00	1.117826e+00	1.531777e+00	1.503028e+00	1.519901e+00	7.699068e-01	6.948094e-01	7.719155e-01	1.259236e+00	1.246319e+00	1.238172e+00	1.289815e+00	1.253309e+00	1.312902e+00	1.199190e+00	1.456971e+00	1.369664e+00	1.281817e+00	1.268387e+00	1.285771e+00	1.181429e+00	1.174340e+00	1.212724e+00	1.144136e+00	1.163657e+00	1.377546e+00	1.058817e+00	1.313014e+00	1.148069e+00	1.008521e+00	8.085292e-01	1.323986e+00	1.191558e+00	1.283984e+00	1.276145e+00	1.277721e+00	1.360122e+00	1.367416e+00	1.362698e+00	1.363100e+00	1.226038e+00	1.210466e+00	1.459731e+00	1.456612e+00	1.298185e+00	1.302974e+00	1.286080e+00	1.348338e+00	1.302971e+00	1.291090e+00	1.235689e+00	1.100480e+00	1.315329e+00	1.305428e+00	1.303833e+00	1.177664e+00	1.127566e+00	1.273999e+00	1.236643e+00	1.207056e+00	1.391574e+00	1.028746e+00	1.252058e+00	1.483081e+00	1.519081e+00	1.512017