# vtk DataFile Version 3.0
vtk output
ASCII
DATASET UNSTRUCTURED_GRID
POINTS 198 double
0.000000e+00	0.000000e+00	0.0	3.001663e-03	3.998753e-03	0.0	6.116103e-03	8.147745e-03	0.0	1.053011e-02	1.119715e-02	0.0	1.518507e-02	1.426837e-02	0.0	2.054402e-02	1.643779e-02	0.0	2.610989e-02	1.864484e-02	0.0	3.202868e-02	2.049587e-02	0.0	3.815784e-02	2.240127e-02	0.0	4.451301e-02	2.432548e-02	0.0	5.105873e-02	2.639461e-02	0.0	5.777175e-02	2.869422e-02	0.0	6.460083e-02	3.134290e-02	0.0	7.155531e-02	3.432662e-02	0.0	7.859655e-02	3.769709e-02	0.0	8.581190e-02	4.127256e-02	0.0	9.352454e-02	4.433597e-02	0.0	1.015599e-01	4.717683e-02	0.0	1.102333e-01	4.866479e-02	0.0	1.191855e-01	4.959277e-02	0.0	1.284684e-01	4.892236e-02	0.0	1.379896e-01	4.810996e-02	0.0	1.476466e-01	4.634659e-02	0.0	1.575538e-01	4.453751e-02	0.0	1.677395e-01	4.285398e-02	0.0	1.781857e-01	4.119934e-02	0.0	1.889034e-01	3.976145e-02	0.0	1.999687e-01	3.934978e-02	0.0	2.112773e-01	3.892907e-02	0.0	2.227833e-01	3.963994e-02	0.0	2.345020e-01	4.093481e-02	0.0	2.464268e-01	4.239206e-02	0.0	2.584277e-01	4.480615e-02	0.0	2.706401e-01	4.726275e-02	0.0	2.830045e-01	4.999660e-02	0.0	2.955237e-01	5.295687e-02	0.0	3.082282e-01	5.596096e-02	0.0	3.211413e-01	5.886437e-02	0.0	3.342207e-01	6.180429e-02	0.0	3.475068e-01	6.452594e-02	0.0	3.610024e-01	6.695626e-02	0.0	3.746312e-01	6.941059e-02	0.0	3.885116e-01	7.097350e-02	0.0	4.025117e-01	7.247252e-02	0.0	4.166422e-01	7.336661e-02	0.0	4.308994e-01	7.347492e-02	0.0	4.452238e-01	7.358374e-02	0.0	4.595464e-01	7.234768e-02	0.0	4.739049e-01	7.106990e-02	0.0	4.882286e-01	6.931927e-02	0.0	5.025020e-01	6.709524e-02	0.0	5.167674e-01	6.486948e-02	0.0	5.309214e-01	6.213740e-02	0.0	5.450384e-01	5.941248e-02	0.0	5.590953e-01	5.665475e-02	0.0	5.730775e-01	5.386604e-02	0.0	5.869795e-01	5.109331e-02	0.0	6.008585e-01	4.872263e-02	0.0	6.146318e-01	4.638249e-02	0.0	6.283399e-01	4.447389e-02	0.0	6.419822e-01	4.308713e-02	0.0	6.554777e-01	4.171530e-02	0.0	6.688791e-01	4.165877e-02	0.0	6.821146e-01	4.168971e-02	0.0	6.951526e-01	4.213761e-02	0.0	7.079781e-01	4.313746e-02	0.0	7.206046e-01	4.412181e-02	0.0	7.330216e-01	4.511877e-02	0.0	7.452235e-01	4.610113e-02	0.0	7.572209e-01	4.660821e-02	0.0	7.690107e-01	4.655228e-02	0.0	7.805550e-01	4.635267e-02	0.0	7.917452e-01	4.466713e-02	0.0	8.026946e-01	4.301783e-02	0.0	8.132196e-01	4.051987e-02	0.0	8.234605e-01	3.787720e-02	0.0	8.334084e-01	3.511958e-02	0.0	8.430713e-01	3.228135e-02	0.0	8.525102e-01	2.958854e-02	0.0	8.617743e-01	2.722115e-02	0.0	8.707916e-01	2.491682e-02	0.0	8.796329e-01	2.297620e-02	0.0	8.882434e-01	2.115901e-02	0.0	8.966214e-01	1.946128e-02	0.0	9.047826e-01	1.795233e-02	0.0	9.127010e-01	1.648826e-02	0.0	9.203873e-01	1.511174e-02	0.0	9.278380e-01	1.378758e-02	0.0	9.350529e-01	1.249389e-02	0.0	9.420338e-01	1.122113e-02	0.0	9.487883e-01	9.989328e-03	0.0	9.553149e-01	8.766618e-03	0.0	9.616236e-01	7.584703e-03	0.0	9.677147e-01	6.419539e-03	0.0	9.735963e-01	5.290110e-03	0.0	9.792697e-01	4.178041e-03	0.0	9.847425e-01	3.096512e-03	0.0	9.900181e-01	2.038001e-03	0.0	9.951009e-01	9.994680e-04	0.0	1.000000e+00	0.000000e+00	0.0	9.950064e-01	2.435564e-04	0.0	9.898220e-01	4.322088e-04	0.0	9.844431e-01	5.696475e-04	0.0	9.788654e-01	6.639092e-04	0.0	9.730846e-01	7.345396e-04	0.0	9.670957e-01	7.495263e-04	0.0	9.608945e-01	7.422159e-04	0.0	9.544765e-01	6.713552e-04	0.0	9.478374e-01	5.845139e-04	0.0	9.409741e-01	4.042165e-04	0.0	9.338809e-01	2.178799e-04	0.0	9.265576e-01	-8.118314e-05	0.0	9.189979e-01	-4.141681e-04	0.0	9.112054e-01	-8.812426e-04	0.0	9.031828e-01	-1.570010e-03	0.0	8.949142e-01	-2.279891e-03	0.0	8.864728e-01	-3.608909e-03	0.0	8.777934e-01	-5.057458e-03	0.0	8.689576e-01	-6.958066e-03	0.0	8.600152e-01	-9.534965e-03	0.0	8.508282e-01	-1.218237e-02	0.0	8.417427e-01	-1.589084e-02	0.0	8.324378e-01	-1.974090e-02	0.0	8.229368e-01	-2.377789e-02	0.0	8.132372e-01	-2.799136e-02	0.0	8.032650e-01	-3.219224e-02	0.0	7.927974e-01	-3.579950e-02	0.0	7.820998e-01	-3.948604e-02	0.0	7.708371e-01	-4.195844e-02	0.0	7.592415e-01	-4.408205e-02	0.0	7.473535e-01	-4.567256e-02	0.0	7.351304e-01	-4.631250e-02	0.0	7.226922e-01	-4.696371e-02	0.0	7.100325e-01	-4.680165e-02	0.0	6.971721e-01	-4.656323e-02	0.0	6.841255e-01	-4.618658e-02	0.0	6.709041e-01	-4.561791e-02	0.0	6.575127e-01	-4.504192e-02	0.0	6.439571e-01	-4.459483e-02	0.0	6.302536e-01	-4.415609e-02	0.0	6.164118e-01	-4.392532e-02	0.0	6.024435e-01	-4.399247e-02	0.0	5.883657e-01	-4.406015e-02	0.0	5.742207e-01	-4.493475e-02	0.0	5.599963e-01	-4.587330e-02	0.0	5.457571e-01	-4.731539e-02	0.0	5.315290e-01	-4.936720e-02	0.0	5.172636e-01	-5.142439e-02	0.0	5.031041e-01	-5.423080e-02	0.0	4.889426e-01	-5.707004e-02	0.0	4.748163e-01	-6.003936e-02	0.0	4.607467e-01	-6.316695e-02	0.0	4.467140e-01	-6.628635e-02	0.0	4.326991e-01	-6.923906e-02	0.0	4.187472e-01	-7.216482e-02	0.0	4.048282e-01	-7.482061e-02	0.0	3.909329e-01	-7.708085e-02	0.0	3.771456e-01	-7.932352e-02	0.0	3.633583e-01	-8.054837e-02	0.0	3.496915e-01	-8.164269e-02	0.0	3.361591e-01	-8.206736e-02	0.0	3.227667e-01	-8.151303e-02	0.0	3.095444e-01	-8.096575e-02	0.0	2.966895e-01	-7.876644e-02	0.0	2.840413e-01	-7.642738e-02	0.0	2.716828e-01	-7.372293e-02	0.0	2.596938e-01	-7.034708e-02	0.0	2.479122e-01	-6.702965e-02	0.0	2.364149e-01	-6.353573e-02	0.0	2.251610e-01	-6.002607e-02	0.0	2.141206e-01	-5.662102e-02	0.0	2.032019e-01	-5.365231e-02	0.0	1.925181e-01	-5.074744e-02	0.0	1.820078e-01	-4.817450e-02	0.0	1.716618e-01	-4.598490e-02	0.0	1.615620e-01	-4.384744e-02	0.0	1.516470e-01	-4.209345e-02	0.0	1.419709e-01	-4.044398e-02	0.0	1.325390e-01	-3.888031e-02	0.0	1.233396e-01	-3.747426e-02	0.0	1.143912e-01	-3.610659e-02	0.0	1.056962e-01	-3.475505e-02	0.0	9.725069e-02	-3.343382e-02	0.0	8.905548e-02	-3.212647e-02	0.0	8.111709e-02	-3.077785e-02	0.0	7.341932e-02	-2.947011e-02	0.0	6.598708e-02	-2.804960e-02	0.0	5.879354e-02	-2.664426e-02	0.0	5.186704e-02	-2.511123e-02	0.0	4.519015e-02	-2.351234e-02	0.0	3.879084e-02	-2.175213e-02	0.0	3.264818e-02	-1.989132e-02	0.0	2.682355e-02	-1.777202e-02	0.0	2.125240e-02	-1.557906e-02	0.0	1.604347e-02	-1.307097e-02	0.0	1.115175e-02	-1.040260e-02	0.0	6.587186e-03	-7.562668e-03	0.0	2.629388e-03	-4.208649e-03	0.0	
CELLS 198	594
2	18	19	2	19	20	2	20	21	2	21	22	2	22	23	2	23	24	2	24	25	2	25	26	2	26	27	2	27	28	2	28	29	2	29	30	2	30	31	2	31	32	2	32	33	2	33	34	2	34	35	2	35	36	2	36	37	2	37	38	2	38	39	2	39	40	2	40	41	2	41	42	2	42	43	2	43	44	2	44	45	2	45	46	2	46	47	2	47	48	2	48	49	2	49	50	2	50	51	2	51	52	2	52	53	2	53	54	2	54	55	2	55	56	2	56	57	2	57	58	2	58	59	2	59	60	2	60	61	2	61	62	2	62	63	2	63	64	2	64	65	2	65	66	2	66	67	2	67	68	2	68	69	2	69	70	2	70	71	2	71	72	2	72	73	2	73	74	2	74	75	2	75	76	2	76	77	2	77	78	2	78	79	2	79	80	2	80	81	2	81	82	2	82	83	2	83	84	2	84	85	2	85	86	2	86	87	2	87	88	2	88	89	2	89	90	2	90	91	2	0	1	2	1	2	2	2	3	2	3	4	2	4	5	2	5	6	2	6	7	2	7	8	2	8	9	2	9	10	2	10	11	2	11	12	2	12	13	2	13	14	2	14	15	2	15	16	2	16	17	2	17	18	2	154	155	2	155	156	2	156	157	2	157	158	2	158	159	2	159	160	2	160	161	2	161	162	2	162	163	2	163	164	2	164	165	2	165	166	2	166	167	2	167	168	2	168	169	2	169	170	2	170	171	2	171	172	2	172	173	2	173	174	2	174	175	2	175	176	2	176	177	2	177	178	2	178	179	2	179	180	2	180	181	2	181	182	2	182	183	2	183	184	2	184	185	2	185	186	2	186	187	2	187	188	2	188	189	2	189	190	2	190	191	2	191	192	2	192	193	2	193	194	2	194	195	2	195	196	2	196	197	2	197	0	2	91	92	2	92	93	2	93	94	2	94	95	2	95	96	2	96	97	2	97	98	2	98	99	2	99	100	2	100	101	2	101	102	2	102	103	2	103	104	2	104	105	2	105	106	2	106	107	2	107	108	2	108	109	2	109	110	2	110	111	2	111	112	2	112	113	2	113	114	2	114	115	2	115	116	2	116	117	2	117	118	2	118	119	2	119	120	2	120	121	2	121	122	2	122	123	2	123	124	2	124	125	2	125	126	2	126	127	2	127	128	2	128	129	2	129	130	2	130	131	2	131	132	2	132	133	2	133	134	2	134	135	2	135	136	2	136	137	2	137	138	2	138	139	2	139	140	2	140	141	2	141	142	2	142	143	2	143	144	2	144	145	2	145	146	2	146	147	2	147	148	2	148	149	2	149	150	2	150	151	2	151	152	2	152	153	2	153	154	
CELL_TYPES 198
3	3	3	3	3	3	3	3	3	3	3	3	3	3	3	3	3	3	3	3	3	3	3	3	3	3	3	3	3	3	3	3	3	3	3	3	3	3	3	3	3	3	3	3	3	3	3	3	3	3	3	3	3	3	3	3	3	3	3	3	3	3	3	3	3	3	3	3	3	3	3	3	3	3	3	3	3	3	3	3	3	3	3	3	3	3	3	3	3	3	3	3	3	3	3	3	3	3	3	3	3	3	3	3	3	3	3	3	3	3	3	3	3	3	3	3	3	3	3	3	3	3	3	3	3	3	3	3	3	3	3	3	3	3	3	3	3	3	3	3	3	3	3	3	3	3	3	3	3	3	3	3	3	3	3	3	3	3	3	3	3	3	3	3	3	3	3	3	3	3	3	3	3	3	3	3	3	3	3	3	3	3	3	3	3	3	3	3	3	3	3	3	3	3	3	3	3	3	
POINT_DATA 198

SCALARS Density double 1
LOOKUP_TABLE default
1.639617e+00	1.391877e+00	1.313203e+00	1.201648e+00	1.169414e+00	1.154719e+00	1.205205e+00	1.234164e+00	1.269059e+00	1.292942e+00	1.310567e+00	1.319481e+00	1.312803e+00	1.286563e+00	1.238684e+00	1.124666e+00	1.001669e+00	8.467799e-01	7.095685e-01	5.750207e-01	4.913561e-01	4.355191e-01	4.169308e-01	5.202033e-01	8.638402e-01	1.081080e+00	1.103679e+00	1.111765e+00	1.115833e+00	1.124619e+00	1.116858e+00	1.117848e+00	1.111681e+00	1.099411e+00	1.090486e+00	1.075134e+00	1.054177e+00	1.033398e+00	1.008755e+00	9.760645e-01	9.478234e-01	9.019893e-01	8.590401e-01	8.255293e-01	7.717925e-01	7.380259e-01	6.794198e-01	6.247949e-01	6.150218e-01	6.638630e-01	8.695379e-01	9.950015e-01	1.030126e+00	1.059539e+00	1.078144e+00	1.095528e+00	1.111427e+00	1.122721e+00	1.129444e+00	1.139127e+00	1.139714e+00	1.144419e+00	1.146163e+00	1.137593e+00	1.135351e+00	1.127365e+00	1.113580e+00	1.103116e+00	1.085206e+00	1.066058e+00	1.062854e+00	1.049504e+00	1.058577e+00	1.080347e+00	1.093657e+00	1.117669e+00	1.130867e+00	1.143675e+00	1.154641e+00	1.160808e+00	1.165473e+00	1.170051e+00	1.171224e+00	1.174058e+00	1.175945e+00	1.177188e+00	1.178946e+00	1.180330e+00	1.181348e+00	1.183286e+00	1.183952e+00	1.185334e+00	1.186216e+00	1.187141e+00	1.188005e+00	1.188464e+00	1.187430e+00	1.194580e+00	1.167438e+00	1.222789e+00	1.338185e+00	1.314880e+00	1.318162e+00	1.324576e+00	1.327722e+00	1.331375e+00	1.334673e+00	1.338574e+00	1.341521e+00	1.345391e+00	1.349196e+00	1.353031e+00	1.360124e+00	1.360761e+00	1.370209e+00	1.373109e+00	1.370412e+00	1.378297e+00	1.367676e+00	1.367882e+00	1.360533e+00	1.332350e+00	1.312667e+00	1.278809e+00	1.228473e+00	1.187433e+00	1.112600e+00	1.045641e+00	1.015163e+00	9.841405e-01	1.009201e+00	1.036835e+00	1.072028e+00	1.120715e+00	1.146886e+00	1.177451e+00	1.206500e+00	1.226563e+00	1.244860e+00	1.263279e+00	1.271433e+00	1.288204e+00	1.295516e+00	1.296428e+00	1.305062e+00	1.296081e+00	1.295114e+00	1.287916e+00	1.268738e+00	1.259399e+00	1.243551e+00	1.218820e+00	1.232447e+00	9.424778e-01	6.487972e-01	5.940779e-01	6.080425e-01	6.444859e-01	6.810648e-01	7.110686e-01	7.763938e-01	8.169611e-01	8.987204e-01	1.012620e+00	1.051112e+00	1.118408e+00	1.185163e+00	1.226720e+00	1.272593e+00	1.316437e+00	1.339905e+00	1.355026e+00	1.376148e+00	1.378857e+00	1.385829e+00	1.389901e+00	1.383456e+00	1.384124e+00	1.381158e+00	1.375788e+00	1.373496e+00	1.371828e+00	1.368848e+00	1.369650e+00	1.367462e+00	1.367534e+00	1.369309e+00	1.369829e+00	1.374901e+00	1.382140e+00	1.390933e+00	1.408431e+00	1.429657e+00	1.455842e+00	1.492685e+00	1.527804e+00	1.551328e+00	1.638189e+00	
VECTORS Momentum double
1.081186e+01	1.427919e+02	0.0	1.394756e+02	1.840080e+02	0.0	2.012995e+02	1.932921e+02	0.0	2.483746e+02	1.662846e+02	0.0	2.767883e+02	1.440358e+02	0.0	2.856291e+02	1.137325e+02	0.0	2.876569e+02	1.019988e+02	0.0	2.866758e+02	8.929531e+01	0.0	2.821017e+02	8.610761e+01	0.0	2.776989e+02	8.600443e+01	0.0	2.714779e+02	8.945532e+01	0.0	2.680772e+02	9.794879e+01	0.0	2.670930e+02	1.091599e+02	0.0	2.695076e+02	1.221458e+02	0.0	2.792287e+02	1.373221e+02	0.0	2.940443e+02	1.317662e+02	0.0	3.068448e+02	1.159499e+02	0.0	3.045945e+02	8.063065e+01	0.0	2.904986e+02	4.324371e+01	0.0	2.584867e+02	6.751787e+00	0.0	2.324043e+02	-1.524451e+01	0.0	2.126960e+02	-2.727304e+01	0.0	1.954543e+02	-3.264236e+01	0.0	2.012514e+02	-3.488656e+01	0.0	1.872649e+02	-2.837362e+01	0.0	1.521450e+02	-1.819560e+01	0.0	1.382662e+02	-1.134505e+01	0.0	1.234494e+02	-4.099080e+00	0.0	1.132826e+02	1.396809e+00	0.0	1.128159e+02	9.944242e+00	0.0	1.144098e+02	1.315700e+01	0.0	1.164572e+02	1.888365e+01	0.0	1.235000e+02	2.493223e+01	0.0	1.329134e+02	2.810427e+01	0.0	1.430613e+02	3.263453e+01	0.0	1.554353e+02	3.674933e+01	0.0	1.674822e+02	3.851861e+01	0.0	1.799039e+02	4.028349e+01	0.0	1.931162e+02	4.146678e+01	0.0	2.043054e+02	3.919801e+01	0.0	2.155888e+02	3.911373e+01	0.0	2.258551e+02	3.311644e+01	0.0	2.327134e+02	2.515980e+01	0.0	2.397105e+02	2.053871e+01	0.0	2.413285e+02	8.805735e+00	0.0	2.433279e+02	2.188400e+00	0.0	2.400129e+02	-8.990694e+00	0.0	2.332947e+02	-2.018151e+01	0.0	2.303731e+02	-2.439174e+01	0.0	2.277387e+02	-3.215642e+01	0.0	2.192394e+02	-3.279378e+01	0.0	2.056259e+02	-3.494085e+01	0.0	1.913360e+02	-3.675267e+01	0.0	1.785102e+02	-3.421056e+01	0.0	1.644176e+02	-3.219797e+01	0.0	1.518679e+02	-3.015684e+01	0.0	1.413723e+02	-2.611000e+01	0.0	1.334723e+02	-2.260798e+01	0.0	1.247070e+02	-1.936133e+01	0.0	1.196690e+02	-1.436953e+01	0.0	1.148820e+02	-1.174245e+01	0.0	1.123011e+02	-6.033427e+00	0.0	1.162350e+02	-1.535656e-02	0.0	1.204873e+02	2.048562e+00	0.0	1.256723e+02	6.867693e+00	0.0	1.363301e+02	1.053691e+01	0.0	1.459354e+02	1.140324e+01	0.0	1.572210e+02	1.267332e+01	0.0	1.691676e+02	1.031113e+01	0.0	1.768743e+02	3.064647e+00	0.0	1.836499e+02	-1.797882e+00	0.0	1.846858e+02	-1.504787e+01	0.0	1.763973e+02	-2.657649e+01	0.0	1.663061e+02	-3.196071e+01	0.0	1.517228e+02	-3.739562e+01	0.0	1.375022e+02	-3.649797e+01	0.0	1.242591e+02	-3.544327e+01	0.0	1.114107e+02	-3.226558e+01	0.0	1.017118e+02	-2.747512e+01	0.0	9.437375e+01	-2.406696e+01	0.0	8.741616e+01	-2.073548e+01	0.0	8.225141e+01	-1.761310e+01	0.0	7.740306e+01	-1.602065e+01	0.0	7.326606e+01	-1.421744e+01	0.0	7.000291e+01	-1.296001e+01	0.0	6.622359e+01	-1.206321e+01	0.0	6.277852e+01	-1.118450e+01	0.0	5.942307e+01	-1.060164e+01	0.0	5.596320e+01	-1.016173e+01	0.0	5.281721e+01	-9.610748e+00	0.0	4.975133e+01	-9.221417e+00	0.0	4.641707e+01	-8.694878e+00	0.0	4.318122e+01	-8.152264e+00	0.0	3.993104e+01	-7.634504e+00	0.0	3.717611e+01	-7.210704e+00	0.0	3.490047e+01	-6.930602e+00	0.0	3.278344e+01	-6.435435e+00	0.0	3.448832e+01	-7.285654e+00	0.0	4.446942e+01	-1.212294e+01	0.0	1.397631e+02	1.490240e+01	0.0	2.322417e+02	-1.236990e+01	0.0	2.219574e+02	-7.305791e+00	0.0	2.176352e+02	-4.393553e+00	0.0	2.167868e+02	-3.177555e+00	0.0	2.143605e+02	-1.572767e+00	0.0	2.121350e+02	-1.211105e-01	0.0	2.102612e+02	1.306075e+00	0.0	2.081219e+02	2.523303e+00	0.0	2.058802e+02	4.086755e+00	0.0	2.036864e+02	5.354321e+00	0.0	2.010521e+02	6.755970e+00	0.0	1.984699e+02	8.439749e+00	0.0	1.950626e+02	1.010021e+01	0.0	1.918506e+02	1.408565e+01	0.0	1.885711e+02	1.609792e+01	0.0	1.837870e+02	2.239327e+01	0.0	1.823985e+02	2.968631e+01	0.0	1.810551e+02	3.438713e+01	0.0	1.795802e+02	4.537478e+01	0.0	1.831385e+02	5.268036e+01	0.0	1.840230e+02	6.390927e+01	0.0	1.910025e+02	7.864658e+01	0.0	2.049330e+02	8.566207e+01	0.0	2.162680e+02	9.281150e+01	0.0	2.323092e+02	9.920391e+01	0.0	2.519345e+02	9.554863e+01	0.0	2.654065e+02	9.175129e+01	0.0	2.813027e+02	7.881224e+01	0.0	2.918845e+02	5.889826e+01	0.0	2.918847e+02	4.661386e+01	0.0	2.981069e+02	2.719815e+01	0.0	2.951647e+02	1.536235e+01	0.0	2.920937e+02	5.221358e+00	0.0	2.878511e+02	-4.916897e+00	0.0	2.799226e+02	-6.560229e+00	0.0	2.746069e+02	-9.981566e+00	0.0	2.677168e+02	-1.160481e+01	0.0	2.606257e+02	-9.844398e+00	0.0	2.547549e+02	-8.264799e+00	0.0	2.486006e+02	-6.034852e+00	0.0	2.434207e+02	-1.304181e+00	0.0	2.390917e+02	1.135688e+00	0.0	2.340674e+02	7.856064e+00	0.0	2.325537e+02	1.486302e+01	0.0	2.313451e+02	1.916234e+01	0.0	2.301061e+02	2.827573e+01	0.0	2.336177e+02	3.354034e+01	0.0	2.355690e+02	4.029429e+01	0.0	2.405040e+02	4.808761e+01	0.0	2.477669e+02	5.068839e+01	0.0	2.527363e+02	5.429908e+01	0.0	2.634691e+02	5.860042e+01	0.0	2.718184e+02	5.924194e+01	0.0	2.791215e+02	5.958677e+01	0.0	2.628608e+02	5.253865e+01	0.0	2.585878e+02	4.528463e+01	0.0	2.691322e+02	4.387170e+01	0.0	2.789689e+02	3.460256e+01	0.0	2.884450e+02	2.481292e+01	0.0	2.940020e+02	1.565269e+01	0.0	3.096257e+02	-2.156934e+00	0.0	3.128064e+02	-1.258929e+01	0.0	3.231309e+02	-3.417329e+01	0.0	3.293442e+02	-5.963214e+01	0.0	3.246172e+02	-6.586098e+01	0.0	3.222882e+02	-8.107524e+01	0.0	3.141816e+02	-8.851281e+01	0.0	3.064035e+02	-8.978342e+01	0.0	2.988873e+02	-9.240070e+01	0.0	2.908395e+02	-9.031126e+01	0.0	2.841054e+02	-8.226287e+01	0.0	2.802454e+02	-7.608309e+01	0.0	2.768032e+02	-7.148385e+01	0.0	2.745649e+02	-6.251224e+01	0.0	2.748968e+02	-5.829397e+01	0.0	2.745844e+02	-5.345137e+01	0.0	2.756227e+02	-4.781434e+01	0.0	2.771821e+02	-4.666494e+01	0.0	2.774385e+02	-4.421395e+01	0.0	2.788842e+02	-4.261770e+01	0.0	2.801071e+02	-4.318756e+01	0.0	2.804438e+02	-4.371862e+01	0.0	2.806034e+02	-4.428250e+01	0.0	2.806525e+02	-4.621800e+01	0.0	2.800760e+02	-4.754676e+01	0.0	2.793153e+02	-5.033682e+01	0.0	2.777404e+02	-5.367810e+01	0.0	2.756689e+02	-5.730031e+01	0.0	2.729096e+02	-6.284536e+01	0.0	2.681501e+02	-6.893316e+01	0.0	2.618119e+02	-7.558567e+01	0.0	2.522656e+02	-8.378544e+01	0.0	2.376339e+02	-8.996764e+01	0.0	2.195191e+02	-9.598648e+01	0.0	1.936378e+02	-9.941011e+01	0.0	1.608900e+02	-9.333335e+01	0.0	1.178901e+02	-8.314485e+01	0.0	4.426281e+01	-4.169019e+01	0.0	
SCALARS Energy double 1
LOOKUP_TABLE default
3.573558e+05	3.073157e+05	2.932552e+05	2.712119e+05	2.654937e+05	2.621071e+05	2.724034e+05	2.780779e+05	2.850027e+05	2.897267e+05	2.931169e+05	2.949635e+05	2.937556e+05	2.887273e+05	2.797894e+05	2.570843e+05	2.325686e+05	2.003826e+05	1.712444e+05	1.413104e+05	1.223270e+05	1.095304e+05	1.038708e+05	1.242687e+05	1.932658e+05	2.375469e+05	2.418363e+05	2.430590e+05	2.436240e+05	2.455155e+05	2.438995e+05	2.441966e+05	2.431203e+05	2.408176e+05	2.393048e+05	2.365445e+05	2.326123e+05	2.288023e+05	2.242847e+05	2.180045e+05	2.127819e+05	2.038591e+05	1.954036e+05	1.890418e+05	1.781661e+05	1.715108e+05	1.594692e+05	1.480312e+05	1.458400e+05	1.553494e+05	1.966424e+05	2.220230e+05	2.286585e+05	2.342270e+05	2.375268e+05	2.407035e+05	2.436818e+05	2.458063e+05	2.469469e+05	2.488542e+05	2.488312e+05	2.497588e+05	2.502421e+05	2.485233e+05	2.482067e+05	2.468507e+05	2.442410e+05	2.424449e+05	2.391203e+05	2.353801e+05	2.350253e+05	2.322703e+05	2.338586e+05	2.380775e+05	2.403613e+05	2.449659e+05	2.473503e+05	2.496992e+05	2.517700e+05	2.529014e+05	2.537352e+05	2.546024e+05	2.547549e+05	2.552852e+05	2.556325e+05	2.558362e+05	2.561603e+05	2.564085e+05	2.565796e+05	2.569566e+05	2.570621e+05	2.573216e+05	2.574766e+05	2.576435e+05	2.578046e+05	2.578838e+05	2.576416e+05	2.592065e+05	2.534319e+05	2.674834e+05	2.959745e+05	2.905045e+05	2.909935e+05	2.923187e+05	2.928756e+05	2.935521e+05	2.941708e+05	2.949079e+05	2.954391e+05	2.961714e+05	2.968730e+05	2.975862e+05	2.989652e+05	2.989811e+05	3.008795e+05	3.013404e+05	3.007490e+05	3.024193e+05	3.001793e+05	3.004330e+05	2.990313e+05	2.935097e+05	2.900356e+05	2.835112e+05	2.738282e+05	2.662424e+05	2.514050e+05	2.384185e+05	2.326267e+05	2.261043e+05	2.315408e+05	2.368856e+05	2.438542e+05	2.536044e+05	2.584805e+05	2.645045e+05	2.701453e+05	2.739164e+05	2.774172e+05	2.809490e+05	2.823822e+05	2.857009e+05	2.869954e+05	2.871285e+05	2.889159e+05	2.869938e+05	2.870042e+05	2.856344e+05	2.819133e+05	2.803696e+05	2.773545e+05	2.728533e+05	2.762408e+05	2.167341e+05	1.565207e+05	1.454051e+05	1.493306e+05	1.572798e+05	1.652774e+05	1.716180e+05	1.860103e+05	1.943049e+05	2.116803e+05	2.354018e+05	2.428565e+05	2.566464e+05	2.698585e+05	2.778997e+05	2.869627e+05	2.955484e+05	2.999005e+05	3.027428e+05	3.069174e+05	3.072357e+05	3.086726e+05	3.094585e+05	3.080984e+05	3.083172e+05	3.076831e+05	3.066195e+05	3.062124e+05	3.058855e+05	3.052719e+05	3.054620e+05	3.049803e+05	3.049796e+05	3.052983e+05	3.053302e+05	3.063117e+05	3.076555e+05	3.092660e+05	3.126007e+05	3.164885e+05	3.213481e+05	3.282395e+05	3.345562e+05	3.383392e+05	3.555818e+05	
SCALARS Pressure double 1
LOOKUP_TABLE default
1.404410e+05	1.152658e+05	1.054405e+05	9.361511e+04	8.954673e+04	8.847191e+04	9.350338e+04	9.662101e+04	1.002908e+05	1.028176e+05	1.047785e+05	1.056382e+05	1.048187e+05	1.018804e+05	9.628205e+04	8.437059e+04	7.154368e+04	5.670443e+04	4.418454e+04	3.326902e+04	2.685144e+04	2.269558e+04	2.271168e+04	3.366790e+04	6.900082e+04	9.067509e+04	9.324686e+04	9.447904e+04	9.514909e+04	9.592517e+04	9.518479e+04	9.518834e+04	9.439231e+04	9.296962e+04	9.177293e+04	8.987222e+04	8.744168e+04	8.494295e+04	8.197894e+04	7.833410e+04	7.498252e+04	6.998981e+04	6.540570e+04	6.159347e+04	5.615436e+04	5.255794e+04	4.680642e+04	4.165995e+04	4.088402e+04	4.620306e+04	6.735411e+04	8.006494e+04	8.409339e+04	8.745482e+04	8.980367e+04	9.190484e+04	9.375357e+04	9.505793e+04	9.595848e+04	9.699110e+04	9.719228e+04	9.769315e+04	9.773932e+04	9.685632e+04	9.649224e+04	9.542337e+04	9.384808e+04	9.246726e+04	9.035438e+04	8.828110e+04	8.766295e+04	8.636499e+04	8.753115e+04	8.992175e+04	9.167908e+04	9.436471e+04	9.598724e+04	9.752700e+04	9.878531e+04	9.952623e+04	1.001090e+05	1.006315e+05	1.008351e+05	1.011652e+05	1.013910e+05	1.015647e+05	1.017743e+05	1.019460e+05	1.020841e+05	1.022955e+05	1.023923e+05	1.025523e+05	1.026651e+05	1.027790e+05	1.028804e+05	1.029405e+05	1.028686e+05	1.034746e+05	1.010088e+05	1.037621e+05	1.103058e+05	1.087002e+05	1.092079e+05	1.098299e+05	1.102282e+05	1.106607e+05	1.110433e+05	1.114904e+05	1.118540e+05	1.122968e+05	1.127504e+05	1.132014e+05	1.139761e+05	1.141536e+05	1.151236e+05	1.155432e+05	1.153156e+05	1.160394e+05	1.150547e+05	1.148635e+05	1.140340e+05	1.109991e+05	1.084974e+05	1.047424e+05	9.914295e+04	9.426883e+04	8.638640e+04	7.904389e+04	7.558245e+04	7.268621e+04	7.485821e+04	7.790332e+04	8.161933e+04	8.665077e+04	8.972043e+04	9.297603e+04	9.615479e+04	9.847497e+04	1.005290e+05	1.025894e+05	1.036319e+05	1.054051e+05	1.063306e+05	1.064742e+05	1.073081e+05	1.065035e+05	1.061998e+05	1.053842e+05	1.032827e+05	1.019910e+05	1.001945e+05	9.718712e+04	9.793678e+04	6.940742e+04	4.045772e+04	3.496024e+04	3.527446e+04	3.838973e+04	4.149767e+04	4.426638e+04	4.970718e+04	5.372905e+04	6.117619e+04	7.203522e+04	7.626681e+04	8.290853e+04	8.996365e+04	9.453928e+04	9.940364e+04	1.041292e+05	1.069021e+05	1.086507e+05	1.108889e+05	1.113929e+05	1.120728e+05	1.125231e+05	1.119265e+05	1.119106e+05	1.116441e+05	1.110773e+05	1.107885e+05	1.106093e+05	1.103179e+05	1.103713e+05	1.101887e+05	1.102114e+05	1.104315e+05	1.105574e+05	1.111160e+05	1.119698e+05	1.130289e+05	1.150067e+05	1.175633e+05	1.206535e+05	1.249478e+05	1.292935e+05	1.326527e+05	1.417813e+05	
SCALARS Temperature double 1
LOOKUP_TABLE default
2.983883e+02	2.884895e+02	2.797087e+02	2.713932e+02	2.667546e+02	2.669068e+02	2.702694e+02	2.727276e+02	2.753020e+02	2.770250e+02	2.785116e+02	2.788999e+02	2.781440e+02	2.758607e+02	2.707791e+02	2.613351e+02	2.488154e+02	2.332796e+02	2.169234e+02	2.015519e+02	1.903713e+02	1.815367e+02	1.897648e+02	2.254620e+02	2.782603e+02	2.921867e+02	2.943213e+02	2.960416e+02	2.970543e+02	2.971375e+02	2.968930e+02	2.966410e+02	2.957921e+02	2.945856e+02	2.931735e+02	2.912012e+02	2.889584e+02	2.863455e+02	2.831046e+02	2.795778e+02	2.755897e+02	2.703110e+02	2.652360e+02	2.599157e+02	2.534622e+02	2.480830e+02	2.399924e+02	2.322799e+02	2.315760e+02	2.424503e+02	2.698397e+02	2.803167e+02	2.843819e+02	2.875394e+02	2.901667e+02	2.922438e+02	2.938578e+02	2.949491e+02	2.959710e+02	2.966129e+02	2.970751e+02	2.973784e+02	2.970662e+02	2.966001e+02	2.960687e+02	2.948633e+02	2.935852e+02	2.920096e+02	2.900462e+02	2.884809e+02	2.873247e+02	2.866711e+02	2.880518e+02	2.899559e+02	2.920246e+02	2.941214e+02	2.956870e+02	2.970657e+02	2.980409e+02	2.986811e+02	2.992271e+02	2.996123e+02	2.999177e+02	3.001734e+02	3.003604e+02	3.005572e+02	3.007284e+02	3.008829e+02	3.010307e+02	3.011600e+02	3.012754e+02	3.013944e+02	3.015014e+02	3.016007e+02	3.016787e+02	3.017383e+02	3.017904e+02	3.017510e+02	3.014086e+02	2.956089e+02	2.871526e+02	2.879882e+02	2.886128e+02	2.888511e+02	2.892116e+02	2.895499e+02	2.898329e+02	2.901521e+02	2.904587e+02	2.907698e+02	2.911209e+02	2.914571e+02	2.919211e+02	2.922388e+02	2.926901e+02	2.931364e+02	2.931348e+02	2.932871e+02	2.930567e+02	2.925256e+02	2.919817e+02	2.902227e+02	2.879354e+02	2.853297e+02	2.811426e+02	2.765600e+02	2.704810e+02	2.633395e+02	2.593674e+02	2.572914e+02	2.583998e+02	2.617439e+02	2.652268e+02	2.693443e+02	2.725220e+02	2.750798e+02	2.776348e+02	2.796831e+02	2.813206e+02	2.829005e+02	2.839424e+02	2.850408e+02	2.859207e+02	2.861056e+02	2.864387e+02	2.862611e+02	2.856576e+02	2.850480e+02	2.835868e+02	2.821166e+02	2.806795e+02	2.777791e+02	2.768268e+02	2.565459e+02	2.172315e+02	2.050035e+02	2.020956e+02	2.075066e+02	2.122588e+02	2.168667e+02	2.230321e+02	2.291069e+02	2.371309e+02	2.478157e+02	2.527651e+02	2.582434e+02	2.644352e+02	2.684709e+02	2.721091e+02	2.755516e+02	2.779346e+02	2.793284e+02	2.807069e+02	2.814289e+02	2.817220e+02	2.820253e+02	2.818370e+02	2.816609e+02	2.815937e+02	2.812576e+02	2.809945e+02	2.808808e+02	2.807510e+02	2.807223e+02	2.807064e+02	2.807493e+02	2.809454e+02	2.811589e+02	2.815369e+02	2.822145e+02	2.830829e+02	2.844579e+02	2.864641e+02	2.887062e+02	2.916022e+02	2.948082e+02	2.978809e+02	3.014987e+02	
SCALARS Mach double 1
LOOKUP_TABLE default
2.522104e-01	4.871911e-01	6.338531e-01	7.531796e-01	8.149163e-01	8.129331e-01	7.683940e-01	7.348737e-01	6.987372e-01	6.738691e-01	6.519107e-01	6.460921e-01	6.573865e-01	6.907372e-01	7.615160e-01	8.840531e-01	1.035596e+00	1.215266e+00	1.401868e+00	1.580013e+00	1.713683e+00	1.822898e+00	1.721069e+00	1.304396e+00	6.556578e-01	4.136228e-01	3.654857e-01	3.220994e-01	2.938532e-01	2.914191e-01	2.985172e-01	3.056714e-01	3.287144e-01	3.591304e-01	3.920180e-01	4.342628e-01	4.783886e-01	5.258992e-01	5.804953e-01	6.358442e-01	6.946257e-01	7.678330e-01	8.345767e-01	9.017327e-01	9.803734e-01	1.044216e+00	1.138291e+00	1.226681e+00	1.234714e+00	1.109903e+00	7.741644e-01	6.245423e-01	5.594668e-01	5.046392e-01	4.550621e-01	4.124002e-01	3.763997e-01	3.502189e-01	3.239850e-01	3.064603e-01	2.932453e-01	2.842636e-01	2.935046e-01	3.068193e-01	3.213748e-01	3.523397e-01	3.826880e-01	4.173961e-01	4.574333e-01	4.873505e-01	5.085139e-01	5.201701e-01	4.952899e-01	4.592038e-01	4.170781e-01	3.702274e-01	3.314644e-01	2.935206e-01	2.636520e-01	2.421698e-01	2.222935e-01	2.071790e-01	1.943914e-01	1.830228e-01	1.742516e-01	1.645291e-01	1.555844e-01	1.470646e-01	1.384250e-01	1.304102e-01	1.228216e-01	1.144747e-01	1.064247e-01	9.836474e-02	9.154692e-02	8.597650e-02	8.078961e-02	8.473527e-02	1.134403e-01	3.334943e-01	5.116041e-01	4.964582e-01	4.848888e-01	4.804154e-01	4.735792e-01	4.670911e-01	4.616044e-01	4.553505e-01	4.492744e-01	4.430368e-01	4.359061e-01	4.289860e-01	4.192712e-01	4.125064e-01	4.027283e-01	3.928492e-01	3.928844e-01	3.894642e-01	3.946293e-01	4.063154e-01	4.179878e-01	4.539567e-01	4.974263e-01	5.434644e-01	6.117347e-01	6.806397e-01	7.655423e-01	8.588029e-01	9.085212e-01	9.340313e-01	9.204486e-01	8.789314e-01	8.346955e-01	7.807886e-01	7.377130e-01	7.019032e-01	6.649211e-01	6.342419e-01	6.089492e-01	5.838014e-01	5.667693e-01	5.483808e-01	5.332990e-01	5.300882e-01	5.242630e-01	5.273762e-01	5.378438e-01	5.482579e-01	5.726253e-01	5.963757e-01	6.189398e-01	6.627909e-01	6.767605e-01	9.431223e-01	1.398339e+00	1.539553e+00	1.573618e+00	1.510404e+00	1.455439e+00	1.402517e+00	1.332088e+00	1.262867e+00	1.171187e+00	1.047358e+00	9.887233e-01	9.223698e-01	8.448491e-01	7.923888e-01	7.433925e-01	6.951714e-01	6.604924e-01	6.396272e-01	6.185147e-01	6.072490e-01	6.026323e-01	5.978272e-01	6.008144e-01	6.035971e-01	6.046571e-01	6.099357e-01	6.140456e-01	6.158150e-01	6.178313e-01	6.182762e-01	6.185221e-01	6.178579e-01	6.148098e-01	6.114790e-01	6.055511e-01	5.948168e-01	5.808469e-01	5.581964e-01	5.238170e-01	4.831396e-01	4.259669e-01	3.536969e-01	2.687659e-01	1.066314e-01	
SCALARS Pressure_Coefficient double 1
LOOKUP_TABLE default