# vtk DataFile Version 3.0
vtk output
ASCII
DATASET UNSTRUCTURED_GRID
POINTS 18045 double
1.868554e-04	9.823874e-04	0.0	3.829749e-04	2.013481e-03	0.0	5.888009e-04	3.095606e-03	0.0	1.142977e-03	4.105869e-03	0.0	1.747574e-03	5.157386e-03	0.0	2.381923e-03	6.260646e-03	0.0	3.299218e-03	7.228666e-03	0.0	4.272228e-03	8.236010e-03	0.0	5.292798e-03	9.292591e-03	0.0	6.517546e-03	1.022348e-02	0.0	7.822151e-03	1.117636e-02	0.0	9.190029e-03	1.217545e-02	0.0	1.070607e-02	1.309505e-02	0.0	1.233045e-02	1.400406e-02	0.0	1.403291e-02	1.495676e-02	0.0	1.585408e-02	1.588138e-02	0.0	1.780666e-02	1.676191e-02	0.0	1.985210e-02	1.768433e-02	0.0	2.200663e-02	1.862099e-02	0.0	2.430894e-02	1.949041e-02	0.0	2.671941e-02	2.040068e-02	0.0	2.924286e-02	2.135283e-02	0.0	3.192727e-02	2.222545e-02	0.0	3.473602e-02	2.313848e-02	0.0	3.767419e-02	2.409359e-02	0.0	4.077658e-02	2.499560e-02	0.0	4.402476e-02	2.592416e-02	0.0	4.742002e-02	2.689477e-02	0.0	5.099131e-02	2.782306e-02	0.0	5.472700e-02	2.877509e-02	0.0	5.862848e-02	2.976938e-02	0.0	6.272353e-02	3.071769e-02	0.0	6.700010e-02	3.169695e-02	0.0	7.146356e-02	3.271176e-02	0.0	7.613873e-02	3.367892e-02	0.0	8.101299e-02	3.468726e-02	0.0	8.609955e-02	3.570416e-02	0.0	9.141092e-02	3.670059e-02	0.0	9.694175e-02	3.773818e-02	0.0	1.027114e-01	3.874666e-02	0.0	1.087185e-01	3.977072e-02	0.0	1.149688e-01	4.081357e-02	0.0	1.214773e-01	4.182300e-02	0.0	1.282385e-01	4.287163e-02	0.0	1.352704e-01	4.388119e-02	0.0	1.425700e-01	4.491038e-02	0.0	1.501470e-01	4.592996e-02	0.0	1.580074e-01	4.693473e-02	0.0	1.661524e-01	4.795195e-02	0.0	1.745935e-01	4.892635e-02	0.0	1.833264e-01	4.992841e-02	0.0	1.923649e-01	5.086790e-02	0.0	2.017021e-01	5.183844e-02	0.0	2.113505e-01	5.274154e-02	0.0	2.213033e-01	5.366813e-02	0.0	2.315701e-01	5.452771e-02	0.0	2.421445e-01	5.540338e-02	0.0	2.530334e-01	5.620485e-02	0.0	2.642293e-01	5.702070e-02	0.0	2.757376e-01	5.775011e-02	0.0	2.875494e-01	5.848588e-02	0.0	2.996665e-01	5.914208e-02	0.0	3.120807e-01	5.978312e-02	0.0	3.247895e-01	6.035537e-02	0.0	3.377850e-01	6.088377e-02	0.0	3.510602e-01	6.136059e-02	0.0	3.646074e-01	6.175916e-02	0.0	3.784158e-01	6.213047e-02	0.0	3.924768e-01	6.238323e-02	0.0	4.067771e-01	6.260079e-02	0.0	4.213051e-01	6.273117e-02	0.0	4.360469e-01	6.277707e-02	0.0	4.509882e-01	6.277400e-02	0.0	4.661131e-01	6.262324e-02	0.0	4.814054e-01	6.240871e-02	0.0	4.968482e-01	6.209336e-02	0.0	5.124219e-01	6.163661e-02	0.0	5.281096e-01	6.109914e-02	0.0	5.438901e-01	6.041570e-02	0.0	5.597431e-01	5.959947e-02	0.0	5.756511e-01	5.869118e-02	0.0	5.915890e-01	5.761876e-02	0.0	6.075391e-01	5.643583e-02	0.0	6.234830e-01	5.516823e-02	0.0	6.393956e-01	5.376480e-02	0.0	6.552603e-01	5.227452e-02	0.0	6.710589e-01	5.071696e-02	0.0	6.867680e-01	4.905803e-02	0.0	7.023703e-01	4.732352e-02	0.0	7.178496e-01	4.553639e-02	0.0	7.331857e-01	4.368095e-02	0.0	7.483601e-01	4.175458e-02	0.0	7.633600e-01	3.979084e-02	0.0	7.781697e-01	3.779275e-02	0.0	7.927699e-01	3.573350e-02	0.0	8.071515e-01	3.365113e-02	0.0	8.213016e-01	3.155110e-02	0.0	8.352080e-01	2.943394e-02	0.0	8.488577e-01	2.729183e-02	0.0	8.622438e-01	2.514841e-02	0.0	8.753574e-01	2.300572e-02	0.0	8.881903e-01	2.086582e-02	0.0	9.007349e-01	1.872810e-02	0.0	9.129850e-01	1.659309e-02	0.0	9.249368e-01	1.447014e-02	0.0	9.365861e-01	1.236017e-02	0.0	9.479296e-01	1.026478e-02	0.0	9.589652e-01	8.186142e-03	0.0	9.696913e-01	6.123873e-03	0.0	9.801061e-01	4.073834e-03	0.0	9.902099e-01	2.038145e-03	0.0	0.000000e+00	0.000000e+00	0.0	1.000000e+00	0.000000e+00	0.0	9.900132e-01	5.126793e-04	0.0	9.797139e-01	8.939552e-04	0.0	9.691029e-01	1.130898e-03	0.0	9.581821e-01	1.206332e-03	0.0	9.469547e-01	1.122085e-03	0.0	9.354243e-01	8.778430e-04	0.0	9.235953e-01	4.784989e-04	0.0	9.114723e-01	-7.135105e-05	0.0	8.990610e-01	-7.670713e-04	0.0	8.863674e-01	-1.602616e-03	0.0	8.734009e-01	-2.603275e-03	0.0	8.601674e-01	-3.733587e-03	0.0	8.466749e-01	-4.985011e-03	0.0	8.329329e-01	-6.351117e-03	0.0	8.189528e-01	-7.840004e-03	0.0	8.047471e-01	-9.453646e-03	0.0	7.903252e-01	-1.116131e-02	0.0	7.756998e-01	-1.295822e-02	0.0	7.608880e-01	-1.486346e-02	0.0	7.459028e-01	-1.685801e-02	0.0	7.307577e-01	-1.892098e-02	0.0	7.154696e-01	-2.105309e-02	0.0	7.000555e-01	-2.324988e-02	0.0	6.845296e-01	-2.548248e-02	0.0	6.689099e-01	-2.774661e-02	0.0	6.532141e-01	-3.003168e-02	0.0	6.374591e-01	-3.231923e-02	0.0	6.216642e-01	-3.460578e-02	0.0	6.058451e-01	-3.686030e-02	0.0	5.900224e-01	-3.908645e-02	0.0	5.742158e-01	-4.127899e-02	0.0	5.584381e-01	-4.338575e-02	0.0	5.427131e-01	-4.543352e-02	0.0	5.270579e-01	-4.740170e-02	0.0	5.114849e-01	-4.923167e-02	0.0	4.960194e-01	-5.097446e-02	0.0	4.806723e-01	-5.256084e-02	0.0	4.654618e-01	-5.398108e-02	0.0	4.504109e-01	-5.529801e-02	0.0	4.355238e-01	-5.635055e-02	0.0	4.208286e-01	-5.727796e-02	0.0	4.063360e-01	-5.802417e-02	0.0	3.920608e-01	-5.854956e-02	0.0	3.780206e-01	-5.897942e-02	0.0	3.642243e-01	-5.913225e-02	0.0	3.506878e-01	-5.920200e-02	0.0	3.374201e-01	-5.909382e-02	0.0	3.244316e-01	-5.886338e-02	0.0	3.117291e-01	-5.853773e-02	0.0	2.993216e-01	-5.807949e-02	0.0	2.872109e-01	-5.758720e-02	0.0	2.754063e-01	-5.696921e-02	0.0	2.639050e-01	-5.635030e-02	0.0	2.527157e-01	-5.562612e-02	0.0	2.418335e-01	-5.490970e-02	0.0	2.312653e-01	-5.411099e-02	0.0	2.210045e-01	-5.332245e-02	0.0	2.110568e-01	-5.246328e-02	0.0	2.014137e-01	-5.162211e-02	0.0	1.920809e-01	-5.071088e-02	0.0	1.830466e-01	-4.982879e-02	0.0	1.743176e-01	-4.887709e-02	0.0	1.658797e-01	-4.795439e-02	0.0	1.577377e-01	-4.698401e-02	0.0	1.498795e-01	-4.602771e-02	0.0	1.423047e-01	-4.505094e-02	0.0	1.350064e-01	-4.406593e-02	0.0	1.279763e-01	-4.309455e-02	0.0	1.212160e-01	-4.208360e-02	0.0	1.147083e-01	-4.111043e-02	0.0	1.084593e-01	-4.009588e-02	0.0	1.024527e-01	-3.910215e-02	0.0	9.668432e-02	-3.811752e-02	0.0	9.115391e-02	-3.710466e-02	0.0	8.584283e-02	-3.613197e-02	0.0	8.075793e-02	-3.512898e-02	0.0	7.588448e-02	-3.413677e-02	0.0	7.121001e-02	-3.318507e-02	0.0	6.674984e-02	-3.217145e-02	0.0	6.247525e-02	-3.119830e-02	0.0	5.838390e-02	-3.024798e-02	0.0	5.448670e-02	-2.924843e-02	0.0	5.075503e-02	-2.829133e-02	0.0	4.719027e-02	-2.734834e-02	0.0	4.380244e-02	-2.636010e-02	0.0	4.056131e-02	-2.541464e-02	0.0	3.746878e-02	-2.448665e-02	0.0	3.454138e-02	-2.350456e-02	0.0	3.174286e-02	-2.256570e-02	0.0	2.907102e-02	-2.166052e-02	0.0	2.656091e-02	-2.067741e-02	0.0	2.416288e-02	-1.973820e-02	0.0	2.187242e-02	-1.884111e-02	0.0	1.973487e-02	-1.786839e-02	0.0	1.770278e-02	-1.691909e-02	0.0	1.576290e-02	-1.601287e-02	0.0	1.395751e-02	-1.505911e-02	0.0	1.226659e-02	-1.408739e-02	0.0	1.065318e-02	-1.316021e-02	0.0	9.150484e-03	-1.221990e-02	0.0	7.791038e-03	-1.121012e-02	0.0	6.494444e-03	-1.024703e-02	0.0	5.279235e-03	-9.304446e-03	0.0	4.263096e-03	-8.243994e-03	0.0	3.294287e-03	-7.232937e-03	0.0	2.381175e-03	-6.261242e-03	0.0	1.747964e-03	-5.157505e-03	0.0	1.144436e-03	-4.105508e-03	0.0	5.896853e-04	-3.095358e-03	0.0	3.835549e-04	-2.013345e-03	0.0	1.871407e-04	-9.823331e-04	0.0	1.010000e+00	0.000000e+00	0.0	1.020055e+00	0.000000e+00	0.0	1.030220e+00	0.000000e+00	0.0	1.040550e+00	0.000000e+00	0.0	1.051103e+00	0.000000e+00	0.0	1.061935e+00	0.000000e+00	0.0	1.073108e+00	0.000000e+00	0.0	1.084680e+00	0.000000e+00	0.0	1.096718e+00	0.000000e+00	0.0	1.109285e+00	0.000000e+00	0.0	1.122451e+00	0.000000e+00	0.0	1.136288e+00	0.000000e+00	0.0	1.150873e+00	0.000000e+00	0.0	1.166284e+00	0.000000e+00	0.0	1.182607e+00	0.000000e+00	0.0	1.199931e+00	0.000000e+00	0.0	1.218350e+00	0.000000e+00	0.0	1.237967e+00	0.000000e+00	0.0	1.258887e+00	0.000000e+00	0.0	1.281227e+00	0.000000e+00	0.0	1.305108e+00	0.000000e+00	0.0	1.330662e+00	0.000000e+00	0.0	1.358028e+00	0.000000e+00	0.0	1.387356e+00	0.000000e+00	0.0	1.418807e+00	0.000000e+00	0.0	1.452554e+00	0.000000e+00	0.0	1.488782e+00	0.000000e+00	0.0	1.527689e+00	0.000000e+00	0.0	1.569488e+00	0.000000e+00	0.0	1.614408e+00	0.000000e+00	0.0	1.662696e+00	0.000000e+00	0.0	1.714617e+00	0.000000e+00	0.0	1.770454e+00	0.000000e+00	0.0	1.830515e+00	0.000000e+00	0.0	1.895128e+00	0.000000e+00	0.0	1.964647e+00	0.000000e+00	0.0	2.039453e+00	0.000000e+00	0.0	2.119957e+00	0.000000e+00	0.0	2.206599e+00	0.000000e+00	0.0	2.299855e+00	0.000000e+00	0.0	2.400236e+00	0.000000e+00	0.0	2.508292e+00	0.000000e+00	0.0	2.624615e+00	0.000000e+00	0.0	2.749843e+00	0.000000e+00	0.0	2.884662e+00	0.000000e+00	0.0	3.029811e+00	0.000000e+00	0.0	3.186085e+00	0.000000e+00	0.0	3.354343e+00	0.000000e+00	0.0	3.535504e+00	0.000000e+00	0.0	3.730564e+00	0.000000e+00	0.0	3.940590e+00	0.000000e+00	0.0	4.166733e+00	0.000000e+00	0.0	4.410235e+00	0.000000e+00	0.0	4.672428e+00	0.000000e+00	0.0	4.954750e+00	0.000000e+00	0.0	5.258750e+00	0.000000e+00	0.0	5.586092e+00	0.000000e+00	0.0	5.938571e+00	0.000000e+00	0.0	6.318120e+00	0.000000e+00	0.0	6.726818e+00	0.000000e+00	0.0	7.166905e+00	0.000000e+00	0.0	7.640795e+00	0.000000e+00	0.0	8.151084e+00	0.000000e+00	0.0	8.700569e+00	0.000000e+00	0.0	9.292262e+00	0.000000e+00	0.0	9.929407e+00	0.000000e+00	0.0	1.061550e+01	0.000000e+00	0.0	1.135429e+01	0.000000e+00	0.0	1.214983e+01	0.000000e+00	0.0	1.300649e+01	0.000000e+00	0.0	1.392896e+01	0.000000e+00	0.0	1.492230e+01	0.000000e+00	0.0	1.599195e+01	0.000000e+00	0.0	1.714377e+01	0.000000e+00	0.0	1.838407e+01	0.000000e+00	0.0	1.971967e+01	0.000000e+00	0.0	2.115786e+01	0.000000e+00	0.0	2.270655e+01	0.000000e+00	0.0	2.437421e+01	0.000000e+00	0.0	2.616999e+01	0.000000e+00	0.0	2.810374e+01	0.000000e+00	0.0	3.018604e+01	0.000000e+00	0.0	3.242832e+01	0.000000e+00	0.0	3.484286e+01	0.000000e+00	0.0	3.744290e+01	0.000000e+00	0.0	4.024269e+01	0.000000e+00	0.0	4.325757e+01	0.000000e+00	0.0	4.650408e+01	0.000000e+00	0.0	5.000000e+01	0.000000e+00	0.0	5.000000e+01	1.000000e-03	0.0	5.000000e+01	2.052340e-03	0.0	5.000000e+01	3.212098e-03	0.0	5.000000e+01	4.539975e-03	0.0	5.000000e+01	6.105473e-03	0.0	5.000000e+01	7.990529e-03	0.0	5.000000e+01	1.029381e-02	0.0	5.000000e+01	1.313585e-02	0.0	5.000000e+01	1.666543e-02	0.0	5.000000e+01	2.106726e-02	0.0	5.000000e+01	2.657175e-02	0.0	5.000000e+01	3.346699e-02	0.0	5.000000e+01	4.211387e-02	0.0	5.000000e+01	5.296498e-02	
[...]
POINT_DATA 18045

SCALARS Density double 1
LOOKUP_TABLE default
1.440993e+00	1.427317e+00	1.315693e+00	1.237340e+00	1.235813e+00	1.129621e+00	1.061888e+00	1.082165e+00	1.011591e+00	9.552073e-01	9.786154e-01	9.499838e-01	9.045738e-01	9.108960e-01	9.093670e-01	8.780081e-01	8.738438e-01	8.850022e-01	8.643464e-01	8.556237e-01	8.725518e-01	8.584697e-01	8.473928e-01	8.625191e-01	8.572741e-01	8.504294e-01	8.608778e-01	8.585301e-01	8.544776e-01	8.632279e-01	8.607656e-01	8.580810e-01	8.660840e-01	8.630872e-01	8.616018e-01	8.670174e-01	8.654310e-01	8.671220e-01	8.678872e-01	8.666208e-01	8.699118e-01	8.686719e-01	8.691827e-01	8.692873e-01	8.680766e-01	8.693803e-01	8.681913e-01	8.686621e-01	8.673301e-01	8.671406e-01	8.658167e-01	8.649214e-01	8.639420e-01	8.627507e-01	8.618231e-01	8.606652e-01	8.593425e-01	8.580527e-01	8.562945e-01	8.544021e-01	8.531006e-01	8.509636e-01	8.495035e-01	8.469213e-01	8.452853e-01	8.424283e-01	8.406201e-01	8.371346e-01	8.336550e-01	8.317150e-01	8.280640e-01	8.257837e-01	8.208577e-01	8.157052e-01	8.123684e-01	8.061054e-01	8.004063e-01	7.944652e-01	7.870244e-01	7.825643e-01	7.740002e-01	7.659848e-01	7.766647e-01	9.332957e-01	1.176812e+00	1.209601e+00	1.180307e+00	1.162683e+00	1.165258e+00	1.170907e+00	1.173882e+00	1.177916e+00	1.183763e+00	1.189329e+00	1.195877e+00	1.203650e+00	1.210892e+00	1.217860e+00	1.225597e+00	1.233854e+00	1.241677e+00	1.249518e+00	1.257691e+00	1.266543e+00	1.275820e+00	1.285591e+00	1.295943e+00	1.307942e+00	1.321717e+00	1.343573e+00	1.353104e+00	1.505917e+00	1.328832e+00	1.429721e+00	1.425993e+00	1.427112e+00	1.426624e+00	1.427050e+00	1.425855e+00	1.424303e+00	1.422166e+00	1.420258e+00	1.417329e+00	1.413431e+00	1.409583e+00	1.405862e+00	1.402157e+00	1.397484e+00	1.392466e+00	1.388048e+00	1.383155e+00	1.377351e+00	1.371527e+00	1.365602e+00	1.358890e+00	1.351876e+00	1.344809e+00	1.337287e+00	1.329566e+00	1.321307e+00	1.313060e+00	1.304820e+00	1.295331e+00	1.286322e+00	1.277280e+00	1.266612e+00	1.257067e+00	1.246884e+00	1.236271e+00	1.227746e+00	1.216573e+00	1.208659e+00	1.203450e+00	1.196720e+00	1.194535e+00	1.190681e+00	1.191176e+00	1.194831e+00	1.197540e+00	1.203772e+00	1.208834e+00	1.216190e+00	1.222466e+00	1.229644e+00	1.236243e+00	1.242564e+00	1.248909e+00	1.254540e+00	1.260220e+00	1.265552e+00	1.270637e+00	1.275882e+00	1.280721e+00	1.285735e+00	1.291295e+00	1.295960e+00	1.301766e+00	1.306185e+00	1.312307e+00	1.316211e+00	1.322284e+00	1.327061e+00	1.332145e+00	1.339360e+00	1.342971e+00	1.349974e+00	1.354940e+00	1.360092e+00	1.369017e+00	1.371052e+00	1.377859e+00	1.387955e+00	1.389942e+00	1.398397e+00	1.408125e+00	1.410569e+00	1.420293e+00	1.431040e+00	1.433342e+00	1.444022e+00	1.457376e+00	1.458737e+00	1.469793e+00	1.486286e+00	1.488761e+00	1.499662e+00	1.517393e+00	1.523989e+00	1.533864e+00	1.551862e+00	1.563838e+00	1.572164e+00	1.590668e+00	1.606757e+00	1.614003e+00	1.632254e+00	1.645954e+00	1.651726e+00	1.661772e+00	1.658931e+00	1.656089e+00	1.634622e+00	1.598230e+00	1.580247e+00	1.334099e+00	1.333847e+00	1.336156e+00	1.336559e+00	1.336236e+00	1.335755e+00	1.335014e+00	1.334000e+00	1.332770e+00	1.331367e+00	1.329825e+00	1.328176e+00	1.326450e+00	1.324673e+00	1.322867e+00	1.321049e+00	1.319236e+00	1.317440e+00	1.315671e+00	1.313937e+00	1.312244e+00	1.310597e+00	1.308998e+00	1.307448e+00	1.305947e+00	1.304491e+00	1.303077e+00	1.301696e+00	1.300337e+00	1.298985e+00	1.297621e+00	1.296220e+00	1.294760e+00	1.293218e+00	1.291585e+00	1.289875e+00	1.288137e+00	1.286466e+00	1.285005e+00	1.283930e+00	1.283414e+00	1.283585e+00	1.284468e+00	1.285963e+00	1.287843e+00	1.289811e+00	1.291579e+00	1.292955e+00	1.293870e+00	1.294372e+00	1.294562e+00	1.294547e+00	1.294409e+00	1.294201e+00	1.293958e+00	1.293708e+00	1.293473e+00	1.293266e+00	1.293095e+00	1.292958e+00	1.292850e+00	1.292766e+00	1.292699e+00	1.292644e+00	1.292597e+00	1.292557e+00	1.292522e+00	1.292490e+00	1.292462e+00	1.292436e+00	1.292413e+00	1.292393e+00	1.292374e+00	1.292358e+00	1.292343e+00	1.292330e+00	1.292318e+00	1.292308e+00	1.292298e+00	1.292288e+00	1.292279e+00	1.292270e+00	1.292261e+00	1.292250e+00	1.292236e+00	1.292213e+00	1.292188e+00	1.292119e+00	1.292022e+00	1.292022e+00	1.292022e+00	1.292022e+00	1.292022e+00	1.292022e+00	1.292022e+00	1.292021e+00	1.292021e+00	1.292021e+00	1.292021e+00	1.292020e+00	1.292019e+00	1.292018e+00	1.292018e+00	1.292018e+00	1.292020e+00	1.292020e+00	1.292014e+00	1.292001e+00	1.291984e+00	1.291979e+00	1.292007e+00	1.292070e+00	1.292130e+00	1.292099e+00	1.291890e+00	1.291512e+00	1.291117e+00	1.290932e+00	1.291084e+00	1.291479e+00	1.291882e+00	1.292117e+00	1.292188e+00	1.292197e+00	1.292213e+00	1.292237e+00	1.292254e+00	1.292261e+00	1.292257e+00	1.292243e+00	1.292190e+00	1.292089e+00	1.291749e+00	1.292022e+00	1.292023e+00	1.292023e+00	1.292023e+00	1.292023e+00	1.292023e+00	1.292023e+00	1.292024e+00	1.292024e+00	1.292024e+00	1.292025e+00	1.292025e+00	1.292026e+00	1.292027e+00	1.292028e+00	1.292029e+00	1.292031e+00	1.292033e+00	1.292035e+00	1.292038e+00	1.292041e+00	1.292045e+00	1.292051e+00	1.292057e+00	1.292065e+00	1.292074e+00	1.292085e+00	1.292099e+00	1.292114e+00	1.292132e+00	1.292153e+00	1.292175e+00	1.292198e+00	1.292220e+00	1.292242e+00	1.292261e+00	1.292277e+00	1.292291e+00	1.292302e+00	1.292318e+00	1.292347e+00	1.292423e+00	1.292570e+00	1.292947e+00	1.381324e+00	1.374700e+00	1.391653e+00	1.382170e+00	1.383792e+00	1.378300e+00	1.376753e+00	1.371880e+00	1.367564e+00	1.361693e+00	1.355783e+00	1.349328e+00	1.342858e+00	1.336293e+00	1.329816e+00	1.323410e+00	1.317017e+00	1.310443e+00	1.303485e+00	1.296033e+00	1.288116e+00	1.279872e+00	1.271553e+00	1.263521e+00	1.256337e+00	1.250862e+00	1.248028e+00	1.248302e+00	1.251380e+00	1.256323e+00	1.262020e+00	1.267587e+00	1.272522e+00	1.276646e+00	1.279974e+00	1.282609e+00	1.284674e+00	1.286284e+00	1.287537e+00	1.288508e+00	1.289261e+00	1.289843e+00	1.290260e+00	1.290522e+00	1.390522e+00	1.393366e+00	1.415156e+00	1.408249e+00	1.408633e+00	1.404022e+00	1.403709e+00	1.401948e+00	1.400827e+00	1.398767e+00	1.396701e+00	1.394206e+00	1.391483e+00	1.388381e+00	1.384912e+00	1.380996e+00	1.376596e+00	1.371676e+00	1.366240e+00	1.360333e+00	1.354065e+00	1.347617e+00	1.341241e+00	1.335249e+00	1.329928e+00	1.325436e+00	1.321730e+00	1.318599e+00	1.315789e+00	1.313116e+00	1.310513e+00	1.307998e+00	1.305634e+00	1.303480e+00	1.301572e+00	1.299924e+00	1.298527e+00	1.297361e+00	1.296401e+00	1.295619e+00	1.294987e+00	1.294484e+00	1.294105e+00	1.293823e+00	1.290521e+00	1.290521e+00	1.290521e+00	1.290520e+00	1.290520e+00	1.290520e+00	1.290519e+00	1.290519e+00	1.290518e+00	1.290518e+00	1.290517e+00	1.290517e+00	1.290516e+00	1.290516e+00	1.290515e+00	1.290515e+00	1.290514e+00	1.290513e+00	1.290512e+00	1.290512e+00	1.290511e+00	1.290510e+00	1.290509e+00	1.290508e+00	1.290507e+00	1.290506e+00	1.290505e+00	1.290503e+00	1.290502e+00	1.290501e+00	1.290499e+00	1.290497e+00	1.290496e+00	1.290494e+00	1.290492e+00	1.290489e+00	1.290487e+00	1.290485e+00	1.290482e+00	1.290479e+00	1.290476e+00	1.290473e+00	1.290470e+00	1.290467e+00	1.290463e+00	1.290459e+00	1.290455e+00	1.290451e+00	1.290446e+00	1.290441e+00	1.290436e+00	1.290431e+00	1.290426e+00	1.290421e+00	1.290415e+00	1.290409e+00	1.290404e+00	1.290398e+00	1.290393e+00	1.290387e+00	1.290382e+00	1.290378e+00	1.290374e+00	1.290371e+00	1.290368e+00	1.290367e+00	1.290368e+00	1.290370e+00	1.290374e+00	1.290381e+00	1.290391e+00	1.290404e+00	1.290421e+00	1.290442e+00	1.290467e+00	1.290498e+00	1.290534e+00	1.290576e+00	1.290625e+00	1.290681e+00	1.290744e+00	1.290815e+00	1.290897e+00	1.290987e+00	1.291098e+00	1.291211e+00	1.291382e+00	1.291527e+00	1.293824e+00	1.293824e+00	1.293824e+00	1.293825e+00	1.293825e+00	1.293825e+00	1.293826e+00	1.293826e+00	1.293827e+00	1.293827e+00	1.293827e+00	1.293828e+00	1.293828e+00	1.293829e+00	1.293829e+00	1.293830e+00	1.293831e+00	1.293831e+00	1.293832e+00	1.293833e+00	1.293833e+00	1.293834e+00	1.293835e+00	1.293836e+00	1.293837e+00	1.293838e+00	1.293839e+00	1.293840e+00	1.293842e+00	1.293843e+00	1.293845e+00	1.293846e+00	1.293848e+00	1.293850e+00	1.293852e+00	1.293854e+00	1.293856e+00	1.293859e+00	1.293862e+00	1.293864e+00	1.293867e+00	1.293871e+00	1.293874e+00	1.293878e+00	1.293882e+00	1.293886e+00	1.293890e+00	1.293895e+00	1.293900e+00	1.293905e+00	1.293911e+00	1.293917e+00	1.293923e+00	1.293929e+00	1.293936e+00	1.293943e+00	1.293950e+00	1.293957e+00	1.293965e+00	1.293972e+00	1.293979e+00	1.293987e+00	1.293994e+00	1.294000e+00	1.294007e+00	1.294012e+00	1.294016e+00	1.294019e+00	1.294020e+00	1.294020e+00	1.294016e+00	1.294010e+00	1.294001e+00	1.293988e+00	1.293971e+00	1.293949e+00	1.293921e+00	1.293888e+00	1.293849e+00	1.293802e+00	1.293748e+00	1.293687e+00	1.293616e+00	1.293538e+00	1.293444e+00	1.293351e+00	1.293216e+00	1.293106e+00	1.290522e+00	1.290523e+00	1.290523e+00	1.290523e+00	1.290524e+00	1.290524e+00	1.290525e+00	1.290525e+00	1.290526e+00	1.290527e+00	1.290527e+00	1.290528e+00	1.290529e+00	1.290529e+00	1.290530e+00	1.290531e+00	1.290532e+00	1.290533e+00	1.290534e+00	1.290535e+00	1.290536e+00	1.290537e+00	1.290538e+00	1.290540e+00	1.290541e+00	1.290542e+00	1.290544e+00	1.290545e+00	1.290547e+00	1.290549e+00	1.290551e+00	1.290553e+00	1.290555e+00	1.290557e+00	1.290559e+00	1.290562e+00	1.290564e+00	1.290567e+00	1.290570e+00	1.290573e+00	1.290576e+00	1.290579e+00	1.290583e+00	1.290587e+00	1.290592e+00	1.290597e+00	1.290602e+00	1.290608e+00	1.290614e+00	1.290621e+00	1.290629e+00	1.290637e+00	1.290646e+00	1.290656e+00	1.290666e+00	1.290677e+00	1.290690e+00	1.290703e+00	1.290717e+00	1.290733e+00	1.290749e+00	1.290767e+00	1.290786e+00	1.290806e+00	1.290828e+00	1.290852e+00	1.290876e+00	1.290903e+00	1.290930e+00	1.290960e+00	1.290991e+00	1.291023e+00	1.291057e+00	1.291093e+00	1.291130e+00	1.291168e+00	1.291208e+00	1.291249e+00	1.291291e+00	1.291333e+00	1.291377e+00	1.291421e+00	1.291466e+00	1.291510e+00	1.291555e+00	1.291599e+00	1.291643e+00	1.291686e+00	1.291728e+00	1.291770e+00	1.291809e+00	1.291848e+00	1.291884e+00	1.291919e+00	1.291952e+00	1.291984e+00	1.292013e+00	1.292041e+00	1.292067e+00	1.292091e+00	1.292113e+00	1.292134e+00	1.292154e+00	1.292172e+00	1.292188e+00	1.292204e+00	1.292219e+00	1.292233e+00	1.292246e+00	1.292258e+00	1.292271e+00	1.292283e+00	1.292295e+00	1.292307e+00	1.292319e+00	1.292332e+00	1.292345e+00	1.292359e+00	1.292373e+00	1.292389e+00	1.292405e+00	1.292423e+00	1.292441e+00	1.292461e+00	1.292482e+00	1.292505e+00	1.292528e+00	1.292554e+00	1.292580e+00	1.292608e+00	1.292637e+00	1.292668e+00	1.292699e+00	1.292732e+00	1.292766e+00	1.292800e+00	1.292835e+00	1.292871e+00	1.292907e+00	1.292943e+00	1.292979e+00	1.293015e+00	1.293051e+00	1.293086e+00	1.293121e+00	1.293155e+00	1.293188e+00	1.293221e+00	1.293252e+00	1.293283e+00	1.293312e+00	1.293341e+00	1.293368e+00	1.293394e+00	1.293419e+00	1.293443e+00	1.293466e+00	1.293488e+00	1.293508e+00	1.293528e+00	1.293546e+00	1.293563e+00	1.293580e+00	1.293595e+00	1.293610e+00	1.293624e+00	1.293637e+00	1.293649e+00	1.293660e+00	1.293671e+00	1.293681e+00	1.293690e+00	1.293699e+00	1.293707e+00	1.293715e+00	1.293722e+00	1.293729e+00	1.293735e+00	1.293741e+00	1.293747e+00	1.293752e+00	1.293757e+00	1.293761e+00	1.293765e+00	1.293769e+00	1.293773e+00	1.293777e+00	1.293780e+00	1.293783e+00	1.293786e+00	1.293788e+00	1.293791e+00	1.293793e+00	1.293795e+00	1.293797e+00	1.293799e+00	1.293801e+00	1.293803e+00	1.293804e+00	1.293806e+00	1.293807e+00	1.293809e+00	1.293810e+00	1.293811e+00	1.293812e+00	1.293813e+00	1.293814e+00	1.293815e+00	1.293816e+00	1.293816e+00	1.293817e+00	1.293818e+00	1.293819e+00	1.293819e+00	1.293820e+00	1.293820e+00	1.293821e+00	1.293821e+00	1.293822e+00	1.293822e+00	1.293822e+00	1.293823e+00	1.293823e+00	1.363301e+00	1.365617e+00	1.367019e+00	1.362522e+00	1.362611e+00	1.360501e+00	1.359952e+00	1.357394e+00	1.354716e+00	1.350836e+00	1.346613e+00	1.341731e+00	1.336514e+00	1.330945e+00	1.325219e+00	1.319399e+00	1.313475e+00	1.307291e+00	1.300664e+00	1.293502e+00	1.285841e+00	1.277823e+00	1.269701e+00	1.261849e+00	1.254850e+00	1.249594e+00	1.247021e+00	1.247571e+00	1.250897e+00	1.256033e+00	1.261859e+00	1.267503e+00	1.272480e+00	1.276626e+00	1.279965e+00	1.282605e+00	1.284672e+00	1.286283e+00	1.287537e+00	1.288508e+00	1.289261e+00	1.289843e+00	1.290260e+00	1.345523e+00	1.346337e+00	1.345345e+00	1.345314e+00	1.346175e+00	1.346451e+00	1.346394e+00	1.345096e+00	1.343280e+00	1.340595e+00	1.337424e+00	1.333620e+00	1.329378e+00	1.324725e+00	1.319821e+00	1.314723e+00	1.309408e+00	1.303729e+00	1.297524e+00	1.290721e+00	1.283369e+00	1.275614e+00	1.267719e+00	1.260070e+00	1.253278e+00	1.248262e+00	1.245969e+00	1.246813e+00	1.250400e+00	1.255736e+00	1.261696e+00	1.267419e+00	1.272438e+00	1.276606e+00	1.279956e+00	1.282600e+00	1.284670e+00	1.286282e+00	1.287536e+00	1.288508e+00	1.289261e+00	1.289843e+00	1.290260e+00	1.322835e+00	1.324179e+00	1.325358e+00	1.327164e+00	1.328669e+00	1.329678e+00	1.330047e+00	1.329767e+00	1.329004e+00	1.327656e+00	1.325829e+00	1.323446e+00	1.320562e+00	1.317175e+00	1.313377e+00	1.309222e+00	1.304693e+00	1.299665e+00	1.294000e+00	1.287649e+00	1.280674e+00	1.273232e+00	1.265597e+00	1.258176e+00	1.251613e+00	1.246859e+00	1.244869e+00	1.246025e+00	1.249888e+00	1.255433e+00	1.261529e+00	1.267333e+00	1.272396e+00	1.276586e+00	1.279946e+00	1.282596e+00	1.284668e+00	1.286281e+00	1.287536e+00	1.288508e+00	1.289261e+00	1.289843e+00	1.290260e+00	1.309638e+00	1.311436e+00	1.313258e+00	1.315051e+00	1.316487e+00	1.317543e+00	1.318150e+00	1.318307e+00	1.318002e+00	1.317222e+00	1.316012e+00	1.314352e+00	1.312249e+00	1.309696e+00	1.306745e+00	1.303416e+00	1.299649e+00	1.295296e+00	1.290212e+00	1.284354e+00	1.277794e+00	1.270695e+00	1.263343e+00	1.256170e+00	1.249854e+00	1.245382e+00	1.243717e+00	1.245204e+00	1.249358e+00	1.255119e+00	1.261358e+00	1.267245e+00	1.272353e+00	1.276565e+00	1.279936e+00	1.282591e+00	1.284665e+00	1.286280e+00	1.287535e+00	1.288508e+00	1.289261e+00	1.289843e+00	1.290260e+00	1.297744e+00	1.299578e+00	1.301381e+00	1.303065e+00	1.304526e+00	1.305699e+00	1.306501e+00	1.306886e+00	1.306858e+00	1.306468e+00	1.305771e+00	1.304760e+00	1.303413e+00	1.301697e+00	1.299615e+00	1.297143e+00	1.294180e+00	1.290554e+00	1.286107e+00	1.280799e+00	1.274702e+00	1.267983e+00	1.260944e+00	1.254040e+00	1.247993e+00	1.243829e+00	1.242512e+00	1.244352e+00	1.248810e+00	1.254798e+00	1.261184e+00	1.267156e+00	1.272309e+00	1.276544e+00	1.279926e+00	1.282587e+00	1.284663e+00	1.286279e+00	1.287535e+00	1.288507e+00	1.289261e+00	1.289843e+00	1.290260e+00	1.287427e+00	1.289277e+00	1.291095e+00	1.292823e+00	1.294369e+00	1.295634e+00	1.296529e+00	1.297022e+00	1.297152e+00	1.296995e+00	1.296607e+00	1.295989e+00	1.295116e+00	1.293964e+00	1.292525e+00	1.290753e+00	1.288506e+00	1.285574e+00	1.281768e+00	1.277030e+00	1.271421e+00	1.265108e+00	1.258401e+00	1.251785e+00	1.246029e+00	1.242195e+00	1.241251e+00	1.243465e+00	1.248244e+00	1.254467e+00	1.261005e+00	1.267064e+00	1.272264e+00	1.276522e+00	1.279916e+00	1.282582e+00	1.284661e+00	1.286278e+00	1.287534e+00	1.288507e+00	1.289261e+00	1.289843e+00	1.290260e+00	1.277660e+00	1.279520e+00	1.281356e+00	1.283110e+00	1.284682e+00	1.285970e+00	1.286893e+00	1.287443e+00	1.287674e+00	1.287677e+00	1.287517e+00	1.287211e+00	1.286743e+00	1.286095e+00	1.285249e+00	1.284135e+00	1.282579e+00	1.280335e+00	1.277180e+00	1.273036e+00	1.267942e+00	1.262058e+00	1.255704e+00	1.249398e+00	1.243954e+00	1.240477e+00	1.239934e+00	1.242546e+00	1.247660e+00	1.254129e+00	1.260823e+00	1.266971e+00	1.272218e+00	1.276500e+00	1.279906e+00	1.282577e+00	1.284659e+00	1.286277e+00	1.287534e+00	1.288507e+00	1.289261e+00	1.289843e+00	1.290261e+00	1.268410e+00	1.270294e+00	1.272159e+00	1.273945e+00	1.275549e+00	1.276873e+00	1.277844e+00	1.278460e+00	1.278789e+00	1.278930e+00	1.278957e+00	1.278894e+00	1.278731e+00	1.278461e+00	1.278074e+00	1.277500e+00	1.276544e+00	1.274931e+00	1.272404e+00	1.268851e+00	1.264282e+00	1.258840e+00	1.252853e+00	1.246874e+00	1.241765e+00	1.238673e+00	1.238559e+00	1.241592e+00	1.247060e+00	1.253783e+00	1.260637e+00	1.266877e+00	1.272172e+00	1.276478e+00	1.279895e+00	1.282572e+00	1.284656e+00	1.286276e+00	1.287533e+00	1.288507e+00	1.289261e+00	1.289844e+00	1.290261e+00	1.259578e+00	1.261485e+00	1.263372e+00	1.265184e+00	1.266816e+00	1.268169e+00	1.269172e+00	1.269832e+00	1.270227e+00	1.270466e+00	1.270631e+00	1.270752e+00	1.270829e+00	1.270871e+00	1.270879e+00	1.270784e+00	1.270380e+00	1.269364e+00	1.267447e+00	1.264481e+00	1.260442e+00	1.255450e+00	1.249842e+00	1.244205e+00	1.239456e+00	1.236779e+00	1.237125e+00	1.240605e+00	1.246442e+00	1.253429e+00	1.260448e+00	1.266781e+00	1.272125e+00	1.276455e+00	1.279885e+00	1.282567e+00	1.284654e+00	1.286275e+00	1.287533e+00	1.288506e+00	1.289260e+00	1.289844e+00	1.290261e+00	1.251403e+00	1.253311e+00	1.255203e+00	1.257023e+00	1.258665e+00	1.260024e+00	1.261033e+00	1.261706e+00	1.262133e+00	1.262431e+00	1.262688e+00	1.262937e+00	1.263190e+00	1.263469e+00	1.263792e+00	1.264097e+00	1.264173e+00	1.263698e+00	1.262352e+00	1.259954e+00	1.256435e+00	1.251892e+00	1.246669e+00	1.241388e+00	1.237022e+00	1.234791e+00	1.235630e+00	1.239583e+00	1.245808e+00	1.253068e+00	1.260256e+00	1.266684e+00	1.272077e+00	1.276433e+00	1.279874e+00	1.282562e+00	1.284652e+00	1.286274e+00	1.287532e+00	1.288506e+00	1.289260e+00	1.289844e+00	1.290261e+00	1.243550e+00	1.245448e+00	1.247339e+00	1.249160e+00	1.250801e+00	1.252154e+00	1.253152e+00	1.253820e+00	1.254256e+00	1.254588e+00	1.254908e+00	1.255254e+00	1.255650e+00	1.256133e+00	1.256734e+00	1.257400e+00	1.257915e+00	1.257942e+00	1.257137e+00	1.255282e+00	1.252268e+00	1.248165e+00	1.243327e+00	1.238415e+00	1.234457e+00	1.232706e+00	1.234074e+00	1.238528e+00	1.245158e+00	1.252700e+00	1.260061e+00	1.266585e+00	1.272029e+00	1.276410e+00	1.279863e+00	1.282557e+00	1.284649e+00	1.286272e+00	1.287531e+00	1.288506e+00	1.289260e+00	1.289844e+00	1.290261e+00	1.235714e+00	1.237600e+00	1.239490e+00	1.241312e+00	1.242954e+00	1.244303e+00	1.245296e+00	1.245966e+00	1.246424e+00	1.246806e+00	1.247206e+00	1.247667e+00	1.248215e+00	1.248900e+00	1.249761e+00	1.250753e+00	1.251662e+00	1.252145e+00	1.251838e+00	1.250492e+00	1.247953e+00	1.244272e+00	1.239812e+00	1.235279e+00	1.231755e+00	1.230522e+00	1.232455e+00	1.237440e+00	1.244493e+00	1.252326e+00	1.259865e+00	1.266486e+00	1.271981e+00	1.276386e+00	1.279852e+00	1.282551e+00	1.284646e+00	1.286271e+00	1.287531e+00	1.288506e+00	1.289260e+00	1.289844e+00	1.290262e+00	1.227485e+00	1.229403e+00	1.231327e+00	1.233191e+00	1.234877e+00	1.236270e+00	1.237307e+00	1.238032e+00	1.238566e+00	1.239049e+00	1.239573e+00	1.240177e+00	1.240890e+00	1.241770e+00	1.242872e+00	1.244161e+00	1.245429e+00	1.246328e+00	1.246477e+00	1.245598e+00	1.243499e+00	1.240210e+00	1.236118e+00	1.231973e+00	1.228911e+00	1.228235e+00	1.230773e+00	1.236319e+00	1.243814e+00	1.251947e+00	1.259666e+00	1.266387e+00	1.271932e+00	1.276363e+00	1.279840e+00	1.282546e+00	1.284644e+00	1.286270e+00	1.287530e+00	1.288505e+00	1.289260e+00	1.289844e+00	1.290262e+00	1.219765e+00	1.221707e+00	1.223657e+00	1.225557e+00	1.227280e+00	1.228705e+00	1.229770e+00	1.230528e+00	1.231110e+00	1.231659e+00	1.232265e+00	1.232964e+00	1.233794e+00	1.234825e+00	1.236127e+00	1.237675e+00	1.239262e+00	1.240532e+00	1.241088e+00	1.240625e+00	1.238914e+00	1.235980e+00	1.232237e+00	1.228486e+00	1.225916e+00	1.225841e+00	1.229028e+00	1.235166e+00	1.243121e+00	1.251563e+00	1.259466e+00	1.266286e+00	1.271883e+00	1.276339e+00	1.279829e+00	1.282541e+00	1.284641e+00	1.286268e+00	1.287530e+00	1.288505e+00	1.289260e+00	1.289844e+00	1.290262e+00	1.212760e+00	1.214670e+00	1.216607e+00	1.218502e+00	1.220218e+00	1.221624e+00	1.222662e+00	1.223393e+00	1.223966e+00	1.224526e+00	1.225165e+00	1.225923e+00	1.226847e+00	1.228015e+00	1.229508e+00	1.231300e+00	1.233181e+00	1.234784e+00	1.235696e+00	1.235588e+00	1.234203e+00	1.231575e+00	1.228157e+00	1.224807e+00	1.222764e+00	1.223338e+00	1.227218e+00	1.233983e+00	1.242417e+00	1.251175e+00	1.259264e+00	1.266186e+00	1.271834e+00	1.276316e+00	1.279818e+00	1.282535e+00	1.284638e+00	1.286267e+00	1.287529e+00	1.288505e+00	1.289260e+00	1.289844e+00	1.290262e+00	1.20548