# vtk DataFile Version 3.0
vtk output
ASCII
DATASET UNSTRUCTURED_GRID
POINTS 1824 double
1.000000e+02	0.000000e+00	0.0	9.917900e+01	1.278772e+01	0.0	9.672949e+01	2.536546e+01	0.0	9.269168e+01	3.752670e+01	0.0	8.713187e+01	4.907176e+01	0.0	8.014136e+01	5.981105e+01	0.0	7.183494e+01	6.956826e+01	0.0	6.234898e+01	7.818315e+01	0.0	5.183926e+01	8.551428e+01	0.0	4.047833e+01	9.144126e+01	0.0	2.845276e+01	9.586679e+01	0.0	1.595999e+01	9.871818e+01	0.0	3.205158e+00	9.994862e+01	0.0	-9.602303e+00	9.953791e+01	0.0	-2.225209e+01	9.749279e+01	0.0	-3.453651e+01	9.384684e+01	0.0	-4.625383e+01	8.865993e+01	0.0	-5.721167e+01	8.201723e+01	0.0	-6.723009e+01	7.402780e+01	0.0	-7.614460e+01	6.482284e+01	0.0	-8.380881e+01	5.455349e+01	0.0	-9.009689e+01	4.338837e+01	0.0	-9.490557e+01	3.151082e+01	0.0	-9.815592e+01	1.911586e+01	0.0	-9.979454e+01	6.407022e+00	0.0	-9.979454e+01	-6.407022e+00	0.0	-9.815592e+01	-1.911586e+01	0.0	-9.490557e+01	-3.151082e+01	0.0	-9.009689e+01	-4.338837e+01	0.0	-8.380881e+01	-5.455349e+01	0.0	-7.614460e+01	-6.482284e+01	0.0	-6.723009e+01	-7.402780e+01	0.0	-5.721167e+01	-8.201723e+01	0.0	-4.625383e+01	-8.865993e+01	0.0	-3.453651e+01	-9.384684e+01	0.0	-2.225209e+01	-9.749279e+01	0.0	-9.602303e+00	-9.953791e+01	0.0	3.205158e+00	-9.994862e+01	0.0	1.595999e+01	-9.871818e+01	0.0	2.845276e+01	-9.586679e+01	0.0	4.047833e+01	-9.144126e+01	0.0	5.183926e+01	-8.551428e+01	0.0	6.234898e+01	-7.818315e+01	0.0	7.183494e+01	-6.956826e+01	0.0	8.014136e+01	-5.981105e+01	0.0	8.713187e+01	-4.907176e+01	0.0	9.269168e+01	-3.752670e+01	0.0	9.672949e+01	-2.536546e+01	0.0	9.917900e+01	-1.278772e+01	0.0	0.000000e+00	0.000000e+00	0.0	3.011611e-03	3.991265e-03	0.0	6.135220e-03	8.130959e-03	0.0	1.041894e-02	1.136323e-02	0.0	1.491324e-02	1.465769e-02	0.0	2.010789e-02	1.716675e-02	0.0	2.551070e-02	1.972545e-02	0.0	3.136244e-02	2.173494e-02	0.0	3.742967e-02	2.377577e-02	0.0	4.381896e-02	2.551081e-02	0.0	5.043324e-02	2.726543e-02	0.0	5.730023e-02	2.894826e-02	0.0	6.438137e-02	3.072462e-02	0.0	7.167842e-02	3.260205e-02	0.0	7.918679e-02	3.460857e-02	0.0	8.693542e-02	3.664017e-02	0.0	9.502448e-02	3.828702e-02	0.0	1.034097e-01	3.958934e-02	0.0	1.121275e-01	4.030309e-02	0.0	1.211033e-01	4.047953e-02	0.0	1.303390e-01	4.006649e-02	0.0	1.398128e-01	3.948150e-02	0.0	1.495100e-01	3.851829e-02	0.0	1.594555e-01	3.753042e-02	0.0	1.696621e-01	3.667124e-02	0.0	1.801163e-01	3.580837e-02	0.0	1.908276e-01	3.520280e-02	0.0	2.018026e-01	3.504845e-02	0.0	2.130158e-01	3.489075e-02	0.0	2.244437e-01	3.547852e-02	0.0	2.360962e-01	3.624531e-02	0.0	2.479605e-01	3.715791e-02	0.0	2.600085e-01	3.846764e-02	0.0	2.722659e-01	3.980014e-02	0.0	2.847183e-01	4.121663e-02	0.0	2.973613e-01	4.268228e-02	0.0	3.101932e-01	4.412983e-02	0.0	3.232248e-01	4.536456e-02	0.0	3.364219e-01	4.661498e-02	0.0	3.497936e-01	4.762968e-02	0.0	3.633214e-01	4.849577e-02	0.0	3.769832e-01	4.932484e-02	0.0	3.907847e-01	4.972484e-02	0.0	4.046928e-01	5.012794e-02	0.0	4.186974e-01	5.021277e-02	0.0	4.327837e-01	5.007460e-02	0.0	4.469349e-01	4.990308e-02	0.0	4.611302e-01	4.940990e-02	0.0	4.753624e-01	4.891543e-02	0.0	4.896182e-01	4.846626e-02	0.0	5.038823e-01	4.804795e-02	0.0	5.181397e-01	4.768253e-02	0.0	5.323801e-01	4.778152e-02	0.0	5.465836e-01	4.788026e-02	0.0	5.607228e-01	4.839714e-02	0.0	5.747877e-01	4.918424e-02	0.0	5.887727e-01	4.997563e-02	0.0	6.026597e-01	5.084190e-02	0.0	6.164401e-01	5.170152e-02	0.0	6.301158e-01	5.217158e-02	0.0	6.436701e-01	5.236291e-02	0.0	6.570776e-01	5.247624e-02	0.0	6.702845e-01	5.133444e-02	0.0	6.833259e-01	5.020695e-02	0.0	6.961155e-01	4.851603e-02	0.0	7.086489e-01	4.630106e-02	0.0	7.209904e-01	4.412001e-02	0.0	7.330489e-01	4.155037e-02	0.0	7.448965e-01	3.900003e-02	0.0	7.565512e-01	3.659256e-02	0.0	7.680157e-01	3.437130e-02	0.0	7.792551e-01	3.219365e-02	0.0	7.903720e-01	3.072305e-02	0.0	8.012557e-01	2.930230e-02	0.0	8.119333e-01	2.822192e-02	0.0	8.223835e-01	2.731215e-02	0.0	8.325902e-01	2.645248e-02	0.0	8.425522e-01	2.564887e-02	0.0	8.522603e-01	2.480978e-02	0.0	8.616970e-01	2.376087e-02	0.0	8.708854e-01	2.273957e-02	0.0	8.797963e-01	2.151379e-02	0.0	8.884549e-01	2.027325e-02	0.0	8.968595e-01	1.900564e-02	0.0	9.050045e-01	1.766228e-02	0.0	9.129098e-01	1.635844e-02	0.0	9.205660e-01	1.502209e-02	0.0	9.279860e-01	1.371290e-02	0.0	9.351733e-01	1.243091e-02	0.0	9.421295e-01	1.116658e-02	0.0	9.488625e-01	9.942193e-03	0.0	9.553710e-01	8.728842e-03	0.0	9.616647e-01	7.555550e-03	0.0	9.677437e-01	6.400254e-03	0.0	9.736160e-01	5.280482e-03	0.0	9.792830e-01	4.179705e-03	0.0	9.847517e-01	3.109396e-03	0.0	9.900255e-01	2.062385e-03	0.0	9.951082e-01	1.032630e-03	0.0	1.000000e+00	0.000000e+00	0.0	9.950064e-01	2.474376e-04	0.0	9.898220e-01	4.489572e-04	0.0	9.844423e-01	5.958783e-04	0.0	9.788632e-01	6.958627e-04	0.0	9.730803e-01	7.701716e-04	0.0	9.670887e-01	7.844809e-04	0.0	9.608841e-01	7.755505e-04	0.0	9.544621e-01	7.009601e-04	0.0	9.478182e-01	6.098509e-04	0.0	9.409494e-01	4.246315e-04	0.0	9.338499e-01	2.331910e-04	0.0	9.265196e-01	-7.122446e-05	0.0	9.189518e-01	-4.090621e-04	0.0	9.111505e-01	-8.819980e-04	0.0	9.031179e-01	-1.572516e-03	0.0	8.948384e-01	-2.284262e-03	0.0	8.863846e-01	-3.614903e-03	0.0	8.776909e-01	-5.058149e-03	0.0	8.688410e-01	-6.961964e-03	0.0	8.598780e-01	-9.523345e-03	0.0	8.506690e-01	-1.215502e-02	0.0	8.415706e-01	-1.588162e-02	0.0	8.322455e-01	-1.973306e-02	0.0	8.227522e-01	-2.383786e-02	0.0	8.130800e-01	-2.816728e-02	0.0	8.031429e-01	-3.251269e-02	0.0	7.927800e-01	-3.647891e-02	0.0	7.821887e-01	-4.053258e-02	0.0	7.710588e-01	-4.367883e-02	0.0	7.595998e-01	-4.656401e-02	0.0	7.478380e-01	-4.910349e-02	0.0	7.356969e-01	-5.088005e-02	0.0	7.233413e-01	-5.268799e-02	0.0	7.107106e-01	-5.395678e-02	0.0	6.978698e-01	-5.515671e-02	0.0	6.848333e-01	-5.631856e-02	0.0	6.716073e-01	-5.739920e-02	0.0	6.582106e-01	-5.849378e-02	0.0	6.446664e-01	-5.973939e-02	0.0	6.309763e-01	-6.102117e-02	0.0	6.171579e-01	-6.238713e-02	0.0	6.032293e-01	-6.389138e-02	0.0	5.891914e-01	-6.540746e-02	0.0	5.750789e-01	-6.711766e-02	0.0	5.608879e-01	-6.886447e-02	0.0	5.466378e-01	-7.068291e-02	0.0	5.323480e-01	-7.260775e-02	0.0	5.180206e-01	-7.453766e-02	0.0	5.036450e-01	-7.626936e-02	0.0	4.892592e-01	-7.798135e-02	0.0	4.748514e-01	-7.937542e-02	0.0	4.604277e-01	-8.035275e-02	0.0	4.460419e-01	-8.132751e-02	0.0	4.316793e-01	-8.109950e-02	0.0	4.173836e-01	-8.083659e-02	0.0	4.032029e-01	-8.000740e-02	0.0	3.891494e-01	-7.864225e-02	0.0	3.752068e-01	-7.727605e-02	0.0	3.614229e-01	-7.559445e-02	0.0	3.477741e-01	-7.392933e-02	0.0	3.342469e-01	-7.252873e-02	0.0	3.208573e-01	-7.135092e-02	0.0	3.076357e-01	-7.023834e-02	0.0	2.945484e-01	-7.007461e-02	0.0	2.816526e-01	-6.991329e-02	0.0	2.689608e-01	-7.007960e-02	0.0	2.564806e-01	-7.049839e-02	0.0	2.442171e-01	-7.090849e-02	0.0	2.321764e-01	-7.128712e-02	0.0	2.203656e-01	-7.165852e-02	0.0	2.087888e-01	-7.168184e-02	0.0	1.974511e-01	-7.142357e-02	0.0	1.863599e-01	-7.114119e-02	0.0	1.755686e-01	-7.003494e-02	0.0	1.650269e-01	-6.895429e-02	0.0	1.548010e-01	-6.745898e-02	0.0	1.448860e-01	-6.559214e-02	0.0	1.352222e-01	-6.377259e-02	0.0	1.260014e-01	-6.118550e-02	0.0	1.170303e-01	-5.865231e-02	0.0	1.084060e-01	-5.588108e-02	0.0	1.001592e-01	-5.277394e-02	0.0	9.214854e-02	-4.975577e-02	0.0	8.453345e-02	-4.643393e-02	0.0	7.717441e-02	-4.314090e-02	0.0	7.006871e-02	-3.988422e-02	0.0	6.324978e-02	-3.658467e-02	0.0	5.664550e-02	-3.338899e-02	0.0	5.023891e-02	-3.032389e-02	0.0	4.403889e-02	-2.736176e-02	0.0	3.803756e-02	-2.450947e-02	0.0	3.223483e-02	-2.175707e-02	0.0	2.669705e-02	-1.895962e-02	0.0	2.138162e-02	-1.619698e-02	0.0	1.644842e-02	-1.317845e-02	0.0	1.180447e-02	-1.009444e-02	0.0	7.481458e-03	-6.889133e-03	0.0	3.527551e-03	-3.532601e-03	0.0	6.024330e-01	-7.461479e-02	0.0	5.921835e-01	-8.111799e-02	0.0	8.418562e+01	1.502385e+01	0.0	8.075965e+01	6.077793e+00	0.0	9.078943e+01	7.849483e+00	0.0	9.090904e+01	1.769426e+01	0.0	4.862882e+01	2.810696e+01	0.0	4.441604e+01	1.599578e+01	0.0	5.649433e+01	2.110872e+01	0.0	8.009757e+01	-3.912649e+01	0.0	7.068377e+01	-3.671558e+01	0.0	7.164459e+01	-4.481996e+01	0.0	8.628257e+01	-2.908886e+01	0.0	7.482557e+01	-2.694158e+01	0.0	7.194129e+01	4.723046e+01	0.0	8.161600e+01	3.922817e+01	0.0	7.742294e+01	-4.972098e+01	0.0	6.887868e+01	5.958407e+01	0.0	6.613951e+01	3.894798e+01	0.0	7.214915e+01	3.358423e+01	0.0	6.732758e+01	-5.641088e+01	0.0	3.526610e+01	-6.492671e+01	0.0	2.564639e+01	-7.087528e+01	0.0	3.275817e+01	-7.550181e+01	0.0	5.120077e+01	7.261217e+01	0.0	3.922399e+01	7.853104e+01	0.0	3.139873e+01	8.638624e+01	0.0	2.844991e+01	7.908433e+01	0.0	5.628799e+01	-6.316037e+01	0.0	4.676135e+01	-6.381589e+01	0.0	5.196779e+01	-7.327976e+01	0.0	3.026770e+01	6.990210e+01	0.0	6.199137e+01	-6.820373e+01	0.0	4.151792e+01	-8.035691e+01	0.0	4.187087e+01	-7.180670e+01	0.0	8.737804e+00	4.917688e+01	0.0	-3.367064e+00	4.441038e+01	0.0	6.836355e+00	3.847672e+01	0.0	1.469728e+01	-7.261022e+01	0.0	1.399472e+01	-8.506291e+01	0.0	2.309480e+01	-7.964303e+01	0.0	1.490074e+01	3.121897e+01	0.0	1.703052e+01	4.258908e+01	0.0	9.593638e+00	5.731291e+00	0.0	1.390742e+01	1.101226e+01	0.0	8.141428e+00	9.177078e+00	0.0	1.412746e+00	6.629235e+00	0.0	3.031595e+00	4.977599e+00	0.0	3.097118e+00	7.387878e+00	0.0	1.115684e+00	2.982815e+00	0.0	2.171595e+00	2.219252e+00	0.0	2.073932e+00	3.565505e+00	0.0	1.672213e+00	1.306849e+00	0.0	2.419123e+00	1.252387e+00	0.0	1.372377e+00	1.637265e-01	0.0	1.422613e+00	5.481383e-03	0.0	1.520357e+00	2.060625e-01	0.0	1.045103e+00	1.030063e-01	0.0	1.072838e+00	1.577826e-01	0.0	1.020978e+00	1.392177e-01	0.0	1.021059e+00	3.184226e-02	0.0	1.011856e+00	2.254120e-02	0.0	1.021675e+00	1.889835e-02	0.0	1.013416e+00	1.367259e-02	0.0	1.013042e+00	6.586092e-03	0.0	1.020283e+00	9.445230e-03	0.0	9.784029e-01	1.497477e-02	0.0	9.864008e-01	1.502798e-02	0.0	9.825985e-01	2.172330e-02	0.0	9.860083e-01	8.532544e-03	0.0	9.828575e-01	6.527953e-03	0.0	9.815312e-01	9.728671e-03	0.0	9.771399e-01	9.118296e-03	0.0	9.666721e-01	2.110891e-02	0.0	9.596541e-01	1.882583e-02	0.0	9.651374e-01	1.497050e-02	0.0	9.692753e-01	1.069318e-02	0.0	9.737434e-01	1.116765e-02	0.0	9.59
[...]
POINT_DATA 1824

SCALARS Density double 1
LOOKUP_TABLE default
1.291813e+00	1.291848e+00	1.292081e+00	1.292199e+00	1.292170e+00	1.292117e+00	1.292092e+00	1.292063e+00	1.292023e+00	1.291985e+00	1.291957e+00	1.291943e+00	1.291948e+00	1.291983e+00	1.292035e+00	1.292093e+00	1.292138e+00	1.292178e+00	1.292208e+00	1.292231e+00	1.292246e+00	1.292258e+00	1.292267e+00	1.292275e+00	1.292282e+00	1.292288e+00	1.292295e+00	1.292304e+00	1.292314e+00	1.292327e+00	1.292344e+00	1.292368e+00	1.292396e+00	1.292431e+00	1.292473e+00	1.292523e+00	1.292570e+00	1.292606e+00	1.292615e+00	1.292599e+00	1.292565e+00	1.292523e+00	1.292475e+00	1.292431e+00	1.292386e+00	1.292355e+00	1.292359e+00	1.292276e+00	1.292044e+00	1.574823e+00	1.222056e+00	1.201227e+00	1.089189e+00	1.012221e+00	9.442435e-01	9.117708e-01	8.867050e-01	9.028832e-01	9.503893e-01	1.030191e+00	1.081651e+00	1.101345e+00	1.091764e+00	1.055297e+00	9.745761e-01	8.762943e-01	7.844333e-01	6.934248e-01	6.211347e-01	5.759848e-01	5.502704e-01	5.341388e-01	5.498973e-01	5.677942e-01	6.628757e-01	9.424242e-01	1.160613e+00	1.197803e+00	1.195847e+00	1.178179e+00	1.178499e+00	1.167430e+00	1.146651e+00	1.132230e+00	1.112086e+00	1.086117e+00	1.069287e+00	1.053616e+00	1.035579e+00	1.028665e+00	1.013718e+00	1.009604e+00	1.015674e+00	1.018680e+00	1.037303e+00	1.052917e+00	1.071504e+00	1.097263e+00	1.113658e+00	1.125834e+00	1.142219e+00	1.144440e+00	1.141074e+00	1.138783e+00	1.116144e+00	1.090673e+00	1.065447e+00	1.024717e+00	9.791865e-01	9.474474e-01	8.880155e-01	8.684272e-01	9.235191e-01	9.797345e-01	1.046781e+00	1.090123e+00	1.122334e+00	1.160345e+00	1.186211e+00	1.199920e+00	1.220572e+00	1.227458e+00	1.221497e+00	1.223329e+00	1.214359e+00	1.207473e+00	1.201876e+00	1.193031e+00	1.194105e+00	1.196591e+00	1.199261e+00	1.208872e+00	1.213143e+00	1.221113e+00	1.228875e+00	1.234957e+00	1.242933e+00	1.248579e+00	1.254772e+00	1.260469e+00	1.266340e+00	1.272224e+00	1.278131e+00	1.284264e+00	1.290819e+00	1.297585e+00	1.310937e+00	1.305613e+00	1.329736e+00	1.462741e+00	1.408139e+00	1.413810e+00	1.421055e+00	1.421322e+00	1.425225e+00	1.427900e+00	1.431747e+00	1.434701e+00	1.438899e+00	1.443508e+00	1.447934e+00	1.457507e+00	1.459234e+00	1.471616e+00	1.476508e+00	1.474480e+00	1.484510e+00	1.472379e+00	1.476412e+00	1.468412e+00	1.436465e+00	1.416059e+00	1.379935e+00	1.329133e+00	1.289034e+00	1.219758e+00	1.160412e+00	1.125969e+00	1.082766e+00	1.087563e+00	1.102297e+00	1.120053e+00	1.156972e+00	1.176346e+00	1.195294e+00	1.214840e+00	1.225035e+00	1.230023e+00	1.234924e+00	1.233809e+00	1.234378e+00	1.230868e+00	1.221854e+00	1.214683e+00	1.199155e+00	1.179029e+00	1.159294e+00	1.093755e+00	9.593155e-01	8.747144e-01	8.607018e-01	9.103154e-01	9.788763e-01	1.018295e+00	1.083197e+00	1.131889e+00	1.176457e+00	1.228458e+00	1.261072e+00	1.279702e+00	1.312754e+00	1.320417e+00	1.305215e+00	1.302188e+00	1.281312e+00	1.254664e+00	1.228590e+00	1.187639e+00	1.145581e+00	1.110968e+00	1.048830e+00	1.032612e+00	1.044069e+00	1.047326e+00	1.079630e+00	1.081017e+00	1.116703e+00	1.170371e+00	1.192217e+00	1.239726e+00	1.273065e+00	1.306148e+00	1.349968e+00	1.376158e+00	1.405916e+00	1.434406e+00	1.456190e+00	1.474427e+00	1.491876e+00	1.504441e+00	1.520207e+00	1.533874e+00	1.553398e+00	1.580334e+00	1.606626e+00	1.619944e+00	1.703589e+00	1.232582e+00	1.229438e+00	1.292025e+00	1.291983e+00	1.291905e+00	1.291999e+00	1.292103e+00	1.292065e+00	1.292115e+00	1.292343e+00	1.292359e+00	1.292368e+00	1.292318e+00	1.292326e+00	1.292109e+00	1.292173e+00	1.292366e+00	1.292088e+00	1.292115e+00	1.292151e+00	1.292413e+00	1.292581e+00	1.292636e+00	1.292593e+00	1.292021e+00	1.291975e+00	1.291950e+00	1.291927e+00	1.292469e+00	1.292511e+00	1.292504e+00	1.291924e+00	1.292456e+00	1.292556e+00	1.292546e+00	1.291639e+00	1.291581e+00	1.291456e+00	1.292675e+00	1.292645e+00	1.292630e+00	1.291520e+00	1.291665e+00	1.291840e+00	1.291764e+00	1.290900e+00	1.286995e+00	1.287344e+00	1.288296e+00	1.279059e+00	1.286038e+00	1.284320e+00	1.286277e+00	1.293254e+00	1.295614e+00	1.291853e+00	1.295655e+00	1.319809e+00	1.315923e+00	1.309368e+00	1.313029e+00	1.310258e+00	1.312522e+00	1.310435e+00	1.307259e+00	1.307965e+00	1.291748e+00	1.300837e+00	1.296939e+00	1.300890e+00	1.296390e+00	1.294595e+00	1.289667e+00	1.281713e+00	1.274074e+00	1.278034e+00	1.281177e+00	1.285955e+00	1.272240e+00	1.276304e+00	1.423410e+00	1.399451e+00	1.055052e+00	1.149399e+00	1.189691e+00	1.184259e+00	1.174592e+00	1.211667e+00	1.178723e+00	1.200700e+00	9.684379e-01	1.021091e+00	9.329485e-01	1.102531e+00	1.094082e+00	1.112488e+00	9.745124e-01	9.039268e-01	1.138937e+00	1.146503e+00	1.164824e+00	1.130112e+00	1.118009e+00	9.616883e-01	9.854246e-01	9.122746e-01	1.068381e+00	1.031202e+00	1.062027e+00	1.237320e+00	1.207077e+00	1.245058e+00	9.155031e-01	8.983512e-01	1.428219e+00	1.430254e+00	1.423647e+00	1.199815e+00	1.206056e+00	1.207433e+00	1.231016e+00	1.232933e+00	1.243257e+00	1.221481e+00	1.220596e+00	1.232228e+00	1.233205e+00	1.241037e+00	1.229427e+00	1.240033e+00	1.229266e+00	1.244797e+00	1.218467e+00	1.227178e+00	1.222872e+00	1.216951e+00	1.221106e+00	1.212032e+00	1.218514e+00	1.215975e+00	1.213421e+00	1.211203e+00	1.211083e+00	1.229588e+00	1.225975e+00	1.221030e+00	1.256847e+00	1.252351e+00	1.260430e+00	1.220690e+00	1.063682e+00	1.066581e+00	1.063724e+00	1.211409e+00	1.178639e+00	1.166515e+00	1.236615e+00	1.262968e+00	1.252111e+00	1.237870e+00	1.225259e+00	1.181242e+00	1.200690e+00	1.137101e+00	1.167151e+00	1.156095e+00	9.672585e-01	9.838951e-01	9.357592e-01	1.100395e+00	1.138438e+00	1.117249e+00	1.222214e+00	1.221526e+00	1.219799e+00	9.996968e-01	1.015052e+00	1.086333e+00	1.083415e+00	1.104671e+00	1.105054e+00	1.055869e+00	1.036840e+00	1.124741e+00	1.176937e+00	1.184325e+00	1.140035e+00	1.136058e+00	1.135547e+00	1.142019e+00	1.140996e+00	1.089657e+00	1.089971e+00	1.115032e+00	1.269536e+00	1.253547e+00	1.181194e+00	1.153770e+00	1.219509e+00	1.180657e+00	1.225097e+00	1.281110e+00	1.273649e+00	1.289457e+00	1.305272e+00	1.301864e+00	1.164092e+00	1.198767e+00	1.229670e+00	1.200963e+00	1.296433e+00	1.249572e+00	1.262757e+00	1.297764e+00	1.353749e+00	1.321200e+00	1.303846e+00	1.370590e+00	1.592316e+00	1.570517e+00	1.340260e+00	1.293623e+00	1.311955e+00	1.384390e+00	1.416185e+00	1.348703e+00	1.373707e+00	1.339229e+00	1.268603e+00	1.243891e+00	1.226901e+00	1.437533e+00	1.465935e+00	1.470053e+00	1.136411e+00	1.164223e+00	1.326681e+00	1.356159e+00	1.326947e+00	1.108928e+00	1.115156e+00	1.139154e+00	1.472610e+00	1.454694e+00	1.457164e+00	1.444385e+00	1.459361e+00	1.467033e+00	1.468549e+00	1.128349e+00	1.429801e+00	1.438661e+00	1.429098e+00	1.452618e+00	1.449640e+00	1.441172e+00	1.437687e+00	1.441315e+00	1.440420e+00	1.446416e+00	1.442174e+00	1.432572e+00	1.432329e+00	1.435384e+00	1.417809e+00	1.420549e+00	1.410609e+00	1.429530e+00	1.149836e+00	1.170085e+00	1.161959e+00	1.184650e+00	1.177511e+00	1.192622e+00	1.426748e+00	1.425234e+00	1.457035e+00	1.188758e+00	1.182429e+00	1.217944e+00	1.224374e+00	1.229284e+00	1.228509e+00	1.232135e+00	1.303816e+00	1.293610e+00	1.300075e+00	1.235326e+00	1.232040e+00	1.228980e+00	1.331679e+00	1.297329e+00	1.310976e+00	1.461289e+00	1.443473e+00	1.444251e+00	1.294469e+00	1.295922e+00	1.295136e+00	1.266621e+00	1.259946e+00	1.253913e+00	1.257734e+00	1.255955e+00	1.268408e+00	1.221872e+00	1.215897e+00	1.217259e+00	1.220280e+00	1.168628e+00	1.150432e+00	1.140597e+00	1.291925e+00	1.149896e+00	1.077804e+00	1.091268e+00	1.103034e+00	1.176336e+00	1.175201e+00	1.164026e+00	1.176306e+00	1.060331e+00	1.048787e+00	1.044304e+00	1.188952e+00	1.078074e+00	1.063336e+00	1.076891e+00	1.142948e+00	1.018689e+00	1.026219e+00	8.274998e-01	1.117274e+00	1.179059e+00	1.045785e+00	1.039423e+00	1.030046e+00	8.517420e-01	1.038632e+00	1.037605e+00	1.026426e+00	1.114362e+00	1.062658e+00	1.141164e+00	1.058936e+00	1.050261e+00	1.074068e+00	5.882706e-01	5.677227e-01	5.544582e-01	1.242566e+00	1.213746e+00	1.230870e+00	1.224372e+00	1.183450e+00	1.212080e+00	1.220600e+00	1.101432e+00	1.036470e+00	1.291186e+00	1.291367e+00	1.291173e+00	1.140063e+00	1.135735e+00	1.131210e+00	1.126519e+00	1.124168e+00	1.141985e+00	1.147580e+00	1.291978e+00	6.010857e-01	1.291878e+00	1.291878e+00	1.287209e+00	1.283754e+00	1.287509e+00	1.104861e+00	1.060588e+00	1.107313e+00	1.111253e+00	1.107601e+00	1.103185e+00	1.292026e+00	1.292093e+00	1.292073e+00	1.097903e+00	1.106670e+00	1.070126e+00	1.012272e+00	1.017275e+00	1.291973e+00	1.291925e+00	1.037740e+00	1.050164e+00	1.074418e+00	1.251187e+00	1.300589e+00	1.318695e+00	1.292222e+00	1.292192e+00	1.292207e+00	1.291669e+00	1.291913e+00	1.291539e+00	1.292232e+00	1.292341e+00	1.292261e+00	1.292509e+00	1.292379e+00	1.292192e+00	1.292149e+00	1.094886e+00	1.152973e+00	1.185471e+00	1.099369e+00	1.001585e+00	1.072095e+00	1.292133e+00	1.292196e+00	1.292100e+00	1.292270e+00	1.292260e+00	1.292269e+00	1.292281e+00	1.292293e+00	1.292269e+00	1.292290e+00	1.292308e+00	1.292526e+00	1.292664e+00	1.292481e+00	1.292317e+00	1.292323e+00	1.292335e+00	1.292362e+00	1.292379e+00	1.292412e+00	1.292425e+00	1.291475e+00	1.292435e+00	1.292236e+00	1.293167e+00	1.292502e+00	1.292451e+00	1.316226e+00	1.326244e+00	1.315797e+00	1.342553e+00	1.370386e+00	1.350366e+00	1.390364e+00	1.356206e+00	1.377458e+00	1.292526e+00	1.292570e+00	1.292560e+00	1.371123e+00	1.354757e+00	1.503673e+00	1.516153e+00	1.491497e+00	1.554588e+00	1.223165e+00	1.249854e+00	1.236652e+00	1.217080e+00	1.537277e+00	1.521502e+00	1.500199e+00	1.494231e+00	1.483170e+00	1.465976e+00	1.461289e+00	1.440408e+00	1.292930e+00	1.292930e+00	1.292750e+00	1.395898e+00	1.389155e+00	1.370406e+00	1.341554e+00	1.292714e+00	1.292684e+00	1.292667e+00	1.266882e+00	1.169854e+00	1.292630e+00	1.292078e+00	1.284779e+00	1.273784e+00	1.261720e+00	1.254603e+00	1.261620e+00	1.292619e+00	1.158795e+00	1.195432e+00	1.165932e+00	1.084896e+00	1.130751e+00	1.088443e+00	9.236957e-01	9.693846e-01	9.825492e-01	1.172877e+00	1.224063e+00	1.228921e+00	1.224459e+00	1.231339e+00	1.292270e+00	1.292278e+00	1.291881e+00	1.291266e+00	1.291864e+00	1.263230e+00	1.234573e+00	1.253179e+00	1.292062e+00	1.292127e+00	1.292115e+00	1.292196e+00	1.292689e+00	1.293033e+00	1.292622e+00	1.292594e+00	1.419136e+00	1.422937e+00	1.292296e+00	1.292315e+00	1.292119e+00	1.292133e+00	1.292167e+00	1.292385e+00	1.292458e+00	1.291914e+00	1.292050e+00	1.291975e+00	1.292148e+00	1.292504e+00	1.292565e+00	1.292582e+00	1.292623e+00	1.292790e+00	1.292669e+00	1.292780e+00	1.292087e+00	1.292091e+00	1.292477e+00	1.292484e+00	1.292575e+00	1.429930e+00	1.454038e+00	1.488644e+00	1.291958e+00	1.292379e+00	1.292360e+00	1.292310e+00	1.292063e+00	1.292017e+00	1.290958e+00	1.291510e+00	1.291703e+00	1.292539e+00	1.292339e+00	1.292577e+00	1.292245e+00	1.292252e+00	1.292389e+00	1.292421e+00	1.292361e+00	1.291914e+00	1.291835e+00	1.291850e+00	1.292304e+00	1.292237e+00	1.292670e+00	1.292228e+00	1.292015e+00	1.292118e+00	1.292697e+00	1.292497e+00	1.292431e+00	1.292652e+00	1.292475e+00	1.292435e+00	1.292073e+00	1.291816e+00	1.291767e+00	1.291837e+00	1.291916e+00	9.581487e-01	1.292000e+00	1.292053e+00	1.292071e+00	1.291895e+00	1.292290e+00	1.292274e+00	1.292375e+00	1.291817e+00	1.291722e+00	1.293451e+00	1.292936e+00	1.293194e+00	1.292541e+00	1.292459e+00	1.163396e+00	1.291963e+00	1.293295e+00	1.292981e+00	1.293057e+00	1.296133e+00	1.295313e+00	1.295117e+00	1.292334e+00	1.292404e+00	1.292839e+00	1.292787e+00	1.292639e+00	1.291137e+00	1.290535e+00	1.059674e+00	1.292982e+00	1.292897e+00	1.292939e+00	1.292323e+00	1.292333e+00	1.292350e+00	1.292225e+00	1.292690e+00	1.292766e+00	1.292435e+00	1.292303e+00	1.292176e+00	1.291884e+00	1.291765e+00	1.291769e+00	1.292202e+00	1.291980e+00	1.291879e+00	1.291891e+00	1.293141e+00	1.294627e+00	1.293729e+00	1.294326e+00	1.292626e+00	1.292569e+00	1.292793e+00	1.292725e+00	1.292045e+00	1.292240e+00	1.291978e+00	1.291992e+00	1.291848e+00	1.292596e+00	1.292514e+00	1.291985e+00	1.292056e+00	1.291898e+00	1.291975e+00	1.292329e+00	1.292077e+00	1.292030e+00	1.292653e+00	1.292477e+00	1.291975e+00	1.290605e+00	1.292453e+00	1.291647e+00	1.292043e+00	1.291664e+00	1.416455e+00	1.421448e+00	1.292259e+00	1.291884e+00	1.291860e+00	1.292073e+00	1.292077e+00	1.292044e+00	1.292383e+00	1.292331e+00	1.293078e+00	1.292435e+00	1.292160e+00	1.291948e+00	1.291780e+00	1.292228e+00	1.292054e+00	1.292024e+00	1.292512e+00	1.290049e+00	1.288676e+00	1.290128e+00	1.292127e+00	1.292047e+00	1.292097e+00	1.292072e+00	1.291884e+00	1.291811e+00	1.292391e+00	1.291875e+00	1.292158e+00	1.292004e+00	1.292532e+00	1.292600e+00	1.292729e+00	1.292898e+00	1.292639e+00	1.293850e+00	1.294194e+00	1.294981e+00	1.294007e+00	1.293320e+00	1.292787e+00	1.291069e+00	1.289697e+00	1.289492e+00	1.290483e+00	1.292279e+00	1.292281e+00	1.292554e+00	1.292023e+00	1.289852e+00	1.291223e+00	1.293535e+00	1.306995e+00	1.301751e+00	1.304391e+00	1.293255e+00	1.293440e+00	1.293080e+00	1.292549e+00	1.293037e+00	1.292660e+00	1.280520e+00	1.270850e+00	1.281073e+00	8.702457e-01	7.784866e-01	8.265627e-01	1.296352e+00	1.293276e+00	1.295613e+00	1.295476e+00	1.294364e+00	1.294061e+00	1.291566e+00	1.293920e+00	1.286924e+00	1.290190e+00	1.291062e+00	1.292335e+00	1.289098e+00	1.289621e+00	1.290447e+00	1.297410e+00	1.296525e+00	1.296792e+00	1.240390e+00	1.293532e+00	1.293877e+00	9.707150e-01	1.295520e+00	1.297396e+00	1.292658e+00	1.294695e+00	1.293194e+00	5.735414e-01	5.909127e-01	1.297853e+00	1.293887e+00	1.287802e+00	1.290830e+00	1.431101e+00	1.383350e+00	1.404581e+00	1.297394e+00	1.294190e+00	1.297742e+00	1.299193e+00	1.300095e+00	1.571072e+00	1.542438e+00	1.538731e+00	1.293660e+00	1.146204e+00	1.288832e+00	1.292835e+00	1.274906e+00	1.267431e+00	1.296446e+00	1.235206e+00	1.234800e+00	1.294327e+00	1.292936e+00	1.296640e+00	1.287639e+00	1.055351e+00	1.300342e+00	1.297778e+00	7.157434e-01	6.418593e-01	6.517935e-01	1.282444e+00	1.296639e+00	1.297712e+00	1.300024e+00	1.412731e+00	1.409349e+00	1.421802e+00	1.304796e+00	1.303614e+00	1.291168e+00	1.296112e+00	1.298255e+00	1.296062e+00	1.298498e+00	1.291262e+00	1.288014e+00	1.295785e+00	1.299689e+00	1.097751e+00	1.084978e+00	1.132961e+00	1.285389e+00	1.107200e+00	1.153489e+00	1.309164e+00	1.307023e+00	1.300510e+00	1.317650e+00	1.318656e+00	1.330530e+00	1.269668e+00	1.294539e+00	1.303798e+00	1.166973e+00	1.106191e+00	1.301814e+00	1.287930e+00	1.286653e+00	1.264690e+00	1.271651e+00	1.307575e+00	1.313963e+00	1.309728e+00	1.289934e+00	1.188426e+00	1.216062e+00	1.238046e+00	1.298768e+00	1.272050e+00	1.290806e+00	1.294079e+00	1.293932e+00	1.293411e+00	1.304491e+00	1.290877e+00	1.291617e+00	1.320300e+00	1.301078e+00	1.300724e+00	1.302233e+00	1.275157e+00	1.275719e+00	1.250717e+00	1.285692e+00	1.116846e+00	1.100772e+00	1.306674e+00	1.254244e+00	1.285890e+00	1.185773e+00	9.045311e-01	9.652999e-01	1.230493e+00	1.313210e+00	1.321332e+00	1.298990e+00	1.309388e+00	1.142785e+00	1.184709e+00	1.138591e+00	1.263925e+00	1.316104e+00	1.300980e+00	8.204777e-01	7.555184e-01	8.607104e-01	1.313530e+00	1.313849e+00	1.292702e+00	1.299863e+00	1.279377e+00	1.288714e+00	1.284059e+00	1.290577e+00	1.288130e+00	1.208865e+00	1.310174e+00	1.313871e+00	1.273048e+00	1.326232e+00	1.144781e+00	1.140833e+00	1.153053e+00	1.149270e+00	1.152451e+00	1.335160e+00	1.325657e+00	1.310999e+00	1.340672e+00	1.333306e+00	1.584942e+00	1.601730e+00	1.625521e+00	1.218895e+00	1.256221e+00	1.309128e+00	1.199104e+00	1.242761e+00	1.262950e+00	1.273499e+00	1.300855e+00	1.320197e+00	1.299118e+00	1.231263e+00	1.187971e+00	1.079263e+00	1.302669e+00	1.280811e+00	1.222449e+00	1.213359e+00	1.203444e+00	1.189630e+00	1.298441e+00	1.348058e+00	1.371964e+00	1.354845e+00	1.405187e+00	1.339434e+00	1.316151e+00	1.343958e+00	1.350608e+00	1.355428e+00	1.229585e+00	1.313858e+00	1.314564e+00	1.521807e+00	1.483612e+00	1.486515e+00	1.050593e+00	1.160635e+00	1.157931e+00	1.304434e+00	1.276843e+00	1.264692e+00	1.101687e+00	1.205393e+00	1.301583e+00	1.281047e+00	1.303389e+00	1.330500e+00	1.216225e+00	9.300082e-01	8.772838e-01	1.154757e+00	1.166515e+00	1.066717e+00	1.312010e+00	1.313021e+00	1.299363e+00	1.341333e+00	1.358181e+00	1.339250e+00	1.299846e+00	1.345631e+00	1.252500e+00	1.258110e+00	1.236809e+00	1.246951e+00	1.154566e+00	1.166389e+00	1.327299e+00	1.326667e+00	1.331240e+00	1.345044e+00	1.328406e+00	1.352027e+00	1.372138e+00	1.267358e+00	1.569474e+00	1.570401e+00	1.584975e+00	1.266509e+00	1.287985e+00	1.335763e+00	1.336975e+00	1.342773e+00	1.445152e+00	1.464327e+00	1.266416e+00	1.283348e+00	1.260410e+00	1.371242e+00	1.035501e+00	1.151027e+00	1.120468e+00	1.132462e+00	1.092473e+00	1.355338e+00	1.156633e+00	1.183039e+00	1.132280e+00	1.248494e+00	1.241958e+00	1.222068e+00	1.225840e+00	1.235553e+00	1.200662e+00	1.214311e+00	1.191920e+00	1.384372e+00	1.021613e+00	1.029712e+00	1.017926e+00	1.001363e+00	8.909929e-01	1.397173e+00	1.397736e+00	1.154027e+00	1.204672e+00	1.163107e+00	1.169300e+00	1.189262e+00	1.170218e+00	1.191339e+00	1.397284e+00	9.919926e-01	9.537231e-01	1.369406e+00	1.371843e+00	1.133456e+00	1.125631e+00	1.207396e+00	1.164334e+00	1.180306e+00	1.220614e+00	1.181149e+00	1.211521e+00	1.309332e+00	1.305954e+00	1.314549e+00	1.355094e+00	1.344298e+00	9.096730e-01	9.852557e-01	1.061041e+00	1.157751e+00	1.120063e+00	1.261261e+00	1.275583e+00	1.254485e+00	1.244681e+00	1.388407e+00	1.388996e+00	1.381624e+00	1.371436e+00	1.224357e+00	1.239328e+00	1.141888e+00	1.401056e+00	9.662311e-01	8.342323e-01	1.196624e+00	1.204607e+00	1.083276e+00	1.099521e+00	1.117360e+00	1.305141e+00	1.165299e+00	1.364062e+00	1.349864e+00	1.379769e+00	1.148305e+00	1.215814e+00	1.252423e+00	1.149932e+00	1.359529e+00	1.314690e+00	1.387659e+00	1.302062e+00	1.426530e+00	1.311193e+00	1.135400e+00	1.413926e+00	1.289214e+00	1.059309e+00	9.448980e-01	1.306823e+00	1.312925e+00	1.309782e+00	1.301883e+00	1.291457e+00	1.434574e+00	1.239541e+00	1.289029e+00	1.297733e+00	1.239187e+00	1.162383e+00	1.208382e+00	1.217817e+00	1.218715e+00	1.317578e+00	1.358664e+00	1.382570e+00	1.398079e+00	1.051206e+00	1.074761e+00	1.091796e+00	9.794440e-01	1.138314e+00	1.139099e+00	1.130367e+00	1.113365e+00	1.278330e+00	1.230146e+00	1.272062e+00	1.316953e+00	1.386406e+00	1.378307e+00	1.215415e+00	1.193538e+00	1.205519e+00	1.454387e+00	1.374479e+00	1.283708e+00	1.367150e+00	1.472936e+00	1.081808e+00	1.102236e+00	1.117900e+00	1.123080e+00	1.098365e+00	1.075394e+00	1.030693e+00	1.023259e+00	1.045338e+00	1.205785e+00	1.199731e+00	1.317757e+00	1.191776e+00	1.330359e+00	1.438328e+00	5.417752e-01	5.529224e-01	1.202180e+00	1.207022e+00	1.125416e+00	1.242798e+00	1.195115e+00	1.090573e+00	1.513641e+00	1.520143e+00	1.547092e+00	1.633668e+00	1.505419e+00	1.278650e+00	1.268962e+00	1.368926e+00	1.363915e+00	1.296949e+00	1.052183e+00	1.231129e+00	1.083210e+00	1.082360e+00	1.482701e+00	1.468899e+00	1.197054e+00	1.301948e+00	1.428157e+00	1.406701e+00	1.389840e+00	9.778838e-01	8.763408e-01	1.108630e+00	1.127215e+00	1.308180e+00	1.373962e+00	1.349528e+00	1.357248e+00	1.223980e+00	1.206366e+00	1.249566e+00	1.271750e+00	1.288253e+00	1.298046e+00	1.308502e+00	1.283341e+00	1.283681e+00	1.402985e+00	1.412316e+00	1.249840e+00	1.271486e+00	1.404813e+00	1.291369e+00	1.256113e+00	1.270852e+00	1.230565e+00	1.246783e+00	1.412333e+00	1.108269e+00	1.260399e+00	1.242693e+00	1.260223e+00	1.144912e+00	1.160521e+00	1.171091e+00	1.140836e+00	1.129937e+00	1.091528e+00	1.064735e+00	1.232412e+00	1.221944e+00	1.443800e+00	1.227649e+00	1.185023e+00	1.211577e+00	1.000941e+00	1.145200e+00	1.121597e+00	7.185569e-01	6.539851e-01	1.311999e+00	1.302929e+00	1.081433e+00	1.428470e+00	1.069914e+00	1.105748e+00	1.284990e+00	1.172422e+00	1.072251e+00	1.106890e+00	1.176436e+00	1.200283e+00	1.204777e+00	1.096648e+00	1.037391e+00	9.874519e-01	1.239019e+00	1.424841e+00	1.405087e+00	1.463219e+00	1.451429e+00	1.295197e+00	1.215575e+00	1.233901e+00	1.362516e+00	1.426828e+00	1.032518e+00	9.350391e-01	1.410175e+00	1.453295e+00	1.203710e+00	1.198294e+00	1.112973e+00	1.203140e+00	1.202102e+00	1.167963e+00	1.172830e+00	7.833151e-01	7.372882e-01	8.706539e-01	1.083814e+00	1.182913e+00	1.361055e+00	1.345696e+00	1.323825e+00	1.296396e+00	1.231133e+00	1.227941e+00	1.356705e+00	1.350295e+00	1.367702e+00	1.041198e+00	1.223853e+00	1.269261e+00	1.172557e+00	1.210895