# vtk DataFile Version 3.0
vtk output
ASCII
DATASET UNSTRUCTURED_GRID
POINTS 198 double
0.000000e+00	0.000000e+00	0.0	3.011611e-03	3.991265e-03	0.0	6.135220e-03	8.130959e-03	0.0	1.041894e-02	1.136323e-02	0.0	1.491324e-02	1.465769e-02	0.0	2.010789e-02	1.716675e-02	0.0	2.551070e-02	1.972545e-02	0.0	3.136244e-02	2.173494e-02	0.0	3.742967e-02	2.377577e-02	0.0	4.381896e-02	2.551081e-02	0.0	5.043324e-02	2.726543e-02	0.0	5.730023e-02	2.894826e-02	0.0	6.438137e-02	3.072462e-02	0.0	7.167842e-02	3.260205e-02	0.0	7.918679e-02	3.460857e-02	0.0	8.693542e-02	3.664017e-02	0.0	9.502448e-02	3.828702e-02	0.0	1.034097e-01	3.958934e-02	0.0	1.121275e-01	4.030309e-02	0.0	1.211033e-01	4.047953e-02	0.0	1.303390e-01	4.006649e-02	0.0	1.398128e-01	3.948150e-02	0.0	1.495100e-01	3.851829e-02	0.0	1.594555e-01	3.753042e-02	0.0	1.696621e-01	3.667124e-02	0.0	1.801163e-01	3.580837e-02	0.0	1.908276e-01	3.520280e-02	0.0	2.018026e-01	3.504845e-02	0.0	2.130158e-01	3.489075e-02	0.0	2.244437e-01	3.547852e-02	0.0	2.360962e-01	3.624531e-02	0.0	2.479605e-01	3.715791e-02	0.0	2.600085e-01	3.846764e-02	0.0	2.722659e-01	3.980014e-02	0.0	2.847183e-01	4.121663e-02	0.0	2.973613e-01	4.268228e-02	0.0	3.101932e-01	4.412983e-02	0.0	3.232248e-01	4.536456e-02	0.0	3.364219e-01	4.661498e-02	0.0	3.497936e-01	4.762968e-02	0.0	3.633214e-01	4.849577e-02	0.0	3.769832e-01	4.932484e-02	0.0	3.907847e-01	4.972484e-02	0.0	4.046928e-01	5.012794e-02	0.0	4.186974e-01	5.021277e-02	0.0	4.327837e-01	5.007460e-02	0.0	4.469349e-01	4.990308e-02	0.0	4.611302e-01	4.940990e-02	0.0	4.753624e-01	4.891543e-02	0.0	4.896182e-01	4.846626e-02	0.0	5.038823e-01	4.804795e-02	0.0	5.181397e-01	4.768253e-02	0.0	5.323801e-01	4.778152e-02	0.0	5.465836e-01	4.788026e-02	0.0	5.607228e-01	4.839714e-02	0.0	5.747877e-01	4.918424e-02	0.0	5.887727e-01	4.997563e-02	0.0	6.026597e-01	5.084190e-02	0.0	6.164401e-01	5.170152e-02	0.0	6.301158e-01	5.217158e-02	0.0	6.436701e-01	5.236291e-02	0.0	6.570776e-01	5.247624e-02	0.0	6.702845e-01	5.133444e-02	0.0	6.833259e-01	5.020695e-02	0.0	6.961155e-01	4.851603e-02	0.0	7.086489e-01	4.630106e-02	0.0	7.209904e-01	4.412001e-02	0.0	7.330489e-01	4.155037e-02	0.0	7.448965e-01	3.900003e-02	0.0	7.565512e-01	3.659256e-02	0.0	7.680157e-01	3.437130e-02	0.0	7.792551e-01	3.219365e-02	0.0	7.903720e-01	3.072305e-02	0.0	8.012557e-01	2.930230e-02	0.0	8.119333e-01	2.822192e-02	0.0	8.223835e-01	2.731215e-02	0.0	8.325902e-01	2.645248e-02	0.0	8.425522e-01	2.564887e-02	0.0	8.522603e-01	2.480978e-02	0.0	8.616970e-01	2.376087e-02	0.0	8.708854e-01	2.273957e-02	0.0	8.797963e-01	2.151379e-02	0.0	8.884549e-01	2.027325e-02	0.0	8.968595e-01	1.900564e-02	0.0	9.050045e-01	1.766228e-02	0.0	9.129098e-01	1.635844e-02	0.0	9.205660e-01	1.502209e-02	0.0	9.279860e-01	1.371290e-02	0.0	9.351733e-01	1.243091e-02	0.0	9.421295e-01	1.116658e-02	0.0	9.488625e-01	9.942193e-03	0.0	9.553710e-01	8.728842e-03	0.0	9.616647e-01	7.555550e-03	0.0	9.677437e-01	6.400254e-03	0.0	9.736160e-01	5.280482e-03	0.0	9.792830e-01	4.179705e-03	0.0	9.847517e-01	3.109396e-03	0.0	9.900255e-01	2.062385e-03	0.0	9.951082e-01	1.032630e-03	0.0	1.000000e+00	0.000000e+00	0.0	9.950064e-01	2.474376e-04	0.0	9.898220e-01	4.489572e-04	0.0	9.844423e-01	5.958783e-04	0.0	9.788632e-01	6.958627e-04	0.0	9.730803e-01	7.701716e-04	0.0	9.670887e-01	7.844809e-04	0.0	9.608841e-01	7.755505e-04	0.0	9.544621e-01	7.009601e-04	0.0	9.478182e-01	6.098509e-04	0.0	9.409494e-01	4.246315e-04	0.0	9.338499e-01	2.331910e-04	0.0	9.265196e-01	-7.122446e-05	0.0	9.189518e-01	-4.090621e-04	0.0	9.111505e-01	-8.819980e-04	0.0	9.031179e-01	-1.572516e-03	0.0	8.948384e-01	-2.284262e-03	0.0	8.863846e-01	-3.614903e-03	0.0	8.776909e-01	-5.058149e-03	0.0	8.688410e-01	-6.961964e-03	0.0	8.598780e-01	-9.523345e-03	0.0	8.506690e-01	-1.215502e-02	0.0	8.415706e-01	-1.588162e-02	0.0	8.322455e-01	-1.973306e-02	0.0	8.227522e-01	-2.383786e-02	0.0	8.130800e-01	-2.816728e-02	0.0	8.031429e-01	-3.251269e-02	0.0	7.927800e-01	-3.647891e-02	0.0	7.821887e-01	-4.053258e-02	0.0	7.710588e-01	-4.367883e-02	0.0	7.595998e-01	-4.656401e-02	0.0	7.478380e-01	-4.910349e-02	0.0	7.356969e-01	-5.088005e-02	0.0	7.233413e-01	-5.268799e-02	0.0	7.107106e-01	-5.395678e-02	0.0	6.978698e-01	-5.515671e-02	0.0	6.848333e-01	-5.631856e-02	0.0	6.716073e-01	-5.739920e-02	0.0	6.582106e-01	-5.849378e-02	0.0	6.446664e-01	-5.973939e-02	0.0	6.309763e-01	-6.102117e-02	0.0	6.171579e-01	-6.238713e-02	0.0	6.032293e-01	-6.389138e-02	0.0	5.891914e-01	-6.540746e-02	0.0	5.750789e-01	-6.711766e-02	0.0	5.608879e-01	-6.886447e-02	0.0	5.466378e-01	-7.068291e-02	0.0	5.323480e-01	-7.260775e-02	0.0	5.180206e-01	-7.453766e-02	0.0	5.036450e-01	-7.626936e-02	0.0	4.892592e-01	-7.798135e-02	0.0	4.748514e-01	-7.937542e-02	0.0	4.604277e-01	-8.035275e-02	0.0	4.460419e-01	-8.132751e-02	0.0	4.316793e-01	-8.109950e-02	0.0	4.173836e-01	-8.083659e-02	0.0	4.032029e-01	-8.000740e-02	0.0	3.891494e-01	-7.864225e-02	0.0	3.752068e-01	-7.727605e-02	0.0	3.614229e-01	-7.559445e-02	0.0	3.477741e-01	-7.392933e-02	0.0	3.342469e-01	-7.252873e-02	0.0	3.208573e-01	-7.135092e-02	0.0	3.076357e-01	-7.023834e-02	0.0	2.945484e-01	-7.007461e-02	0.0	2.816526e-01	-6.991329e-02	0.0	2.689608e-01	-7.007960e-02	0.0	2.564806e-01	-7.049839e-02	0.0	2.442171e-01	-7.090849e-02	0.0	2.321764e-01	-7.128712e-02	0.0	2.203656e-01	-7.165852e-02	0.0	2.087888e-01	-7.168184e-02	0.0	1.974511e-01	-7.142357e-02	0.0	1.863599e-01	-7.114119e-02	0.0	1.755686e-01	-7.003494e-02	0.0	1.650269e-01	-6.895429e-02	0.0	1.548010e-01	-6.745898e-02	0.0	1.448860e-01	-6.559214e-02	0.0	1.352222e-01	-6.377259e-02	0.0	1.260014e-01	-6.118550e-02	0.0	1.170303e-01	-5.865231e-02	0.0	1.084060e-01	-5.588108e-02	0.0	1.001592e-01	-5.277394e-02	0.0	9.214854e-02	-4.975577e-02	0.0	8.453345e-02	-4.643393e-02	0.0	7.717441e-02	-4.314090e-02	0.0	7.006871e-02	-3.988422e-02	0.0	6.324978e-02	-3.658467e-02	0.0	5.664550e-02	-3.338899e-02	0.0	5.023891e-02	-3.032389e-02	0.0	4.403889e-02	-2.736176e-02	0.0	3.803756e-02	-2.450947e-02	0.0	3.223483e-02	-2.175707e-02	0.0	2.669705e-02	-1.895962e-02	0.0	2.138162e-02	-1.619698e-02	0.0	1.644842e-02	-1.317845e-02	0.0	1.180447e-02	-1.009444e-02	0.0	7.481458e-03	-6.889133e-03	0.0	3.527551e-03	-3.532601e-03	0.0	
CELLS 198	594
2	41	42	2	42	43	2	43	44	2	44	45	2	45	46	2	46	47	2	47	48	2	48	49	2	49	50	2	50	51	2	51	52	2	52	53	2	53	54	2	54	55	2	55	56	2	56	57	2	57	58	2	58	59	2	59	60	2	60	61	2	61	62	2	62	63	2	63	64	2	64	65	2	65	66	2	66	67	2	67	68	2	68	69	2	69	70	2	70	71	2	71	72	2	72	73	2	73	74	2	74	75	2	75	76	2	76	77	2	77	78	2	78	79	2	79	80	2	80	81	2	81	82	2	82	83	2	83	84	2	84	85	2	85	86	2	86	87	2	87	88	2	88	89	2	89	90	2	90	91	2	91	92	2	92	93	2	93	94	2	94	95	2	95	96	2	96	97	2	97	98	2	98	99	2	99	100	2	100	101	2	101	102	2	102	103	2	103	104	2	104	105	2	105	106	2	106	107	2	107	108	2	108	109	2	109	110	2	110	111	2	111	112	2	112	113	2	113	114	2	114	115	2	115	116	2	116	117	2	117	118	2	118	119	2	119	120	2	120	121	2	121	122	2	122	123	2	123	124	2	124	125	2	125	126	2	126	127	2	127	128	2	128	129	2	129	130	2	130	131	2	131	132	2	132	133	2	133	134	2	134	135	2	135	136	2	136	137	2	137	138	2	138	139	2	139	140	2	140	141	2	141	142	2	142	143	2	143	144	2	144	145	2	145	146	2	146	147	2	147	148	2	148	149	2	149	150	2	150	151	2	151	152	2	152	153	2	153	154	2	154	155	2	155	156	2	156	157	2	157	158	2	158	159	2	159	160	2	160	161	2	161	162	2	162	163	2	163	164	2	164	165	2	165	166	2	166	167	2	167	168	2	168	169	2	169	170	2	170	171	2	171	172	2	172	173	2	173	174	2	0	1	2	1	2	2	2	3	2	3	4	2	4	5	2	5	6	2	6	7	2	7	8	2	8	9	2	9	10	2	10	11	2	11	12	2	12	13	2	13	14	2	14	15	2	15	16	2	16	17	2	17	18	2	18	19	2	19	20	2	20	21	2	21	22	2	22	23	2	23	24	2	24	25	2	25	26	2	26	27	2	27	28	2	28	29	2	29	30	2	30	31	2	31	32	2	32	33	2	33	34	2	34	35	2	35	36	2	36	37	2	37	38	2	38	39	2	39	40	2	40	41	2	174	175	2	175	176	2	176	177	2	177	178	2	178	179	2	179	180	2	180	181	2	181	182	2	182	183	2	183	184	2	184	185	2	185	186	2	186	187	2	187	188	2	188	189	2	189	190	2	190	191	2	191	192	2	192	193	2	193	194	2	194	195	2	195	196	2	196	197	2	197	0	
CELL_TYPES 198
3	3	3	3	3	3	3	3	3	3	3	3	3	3	3	3	3	3	3	3	3	3	3	3	3	3	3	3	3	3	3	3	3	3	3	3	3	3	3	3	3	3	3	3	3	3	3	3	3	3	3	3	3	3	3	3	3	3	3	3	3	3	3	3	3	3	3	3	3	3	3	3	3	3	3	3	3	3	3	3	3	3	3	3	3	3	3	3	3	3	3	3	3	3	3	3	3	3	3	3	3	3	3	3	3	3	3	3	3	3	3	3	3	3	3	3	3	3	3	3	3	3	3	3	3	3	3	3	3	3	3	3	3	3	3	3	3	3	3	3	3	3	3	3	3	3	3	3	3	3	3	3	3	3	3	3	3	3	3	3	3	3	3	3	3	3	3	3	3	3	3	3	3	3	3	3	3	3	3	3	3	3	3	3	3	3	3	3	3	3	3	3	3	3	3	3	3	3	
POINT_DATA 198

SCALARS Density double 1
LOOKUP_TABLE default
1.574823e+00	1.222056e+00	1.201227e+00	1.089189e+00	1.012221e+00	9.442435e-01	9.117708e-01	8.867050e-01	9.028832e-01	9.503893e-01	1.030191e+00	1.081651e+00	1.101345e+00	1.091764e+00	1.055297e+00	9.745761e-01	8.762943e-01	7.844333e-01	6.934248e-01	6.211347e-01	5.759848e-01	5.502704e-01	5.341388e-01	5.498973e-01	5.677942e-01	6.628757e-01	9.424242e-01	1.160613e+00	1.197803e+00	1.195847e+00	1.178179e+00	1.178499e+00	1.167430e+00	1.146651e+00	1.132230e+00	1.112086e+00	1.086117e+00	1.069287e+00	1.053616e+00	1.035579e+00	1.028665e+00	1.013718e+00	1.009604e+00	1.015674e+00	1.018680e+00	1.037303e+00	1.052917e+00	1.071504e+00	1.097263e+00	1.113658e+00	1.125834e+00	1.142219e+00	1.144440e+00	1.141074e+00	1.138783e+00	1.116144e+00	1.090673e+00	1.065447e+00	1.024717e+00	9.791865e-01	9.474474e-01	8.880155e-01	8.684272e-01	9.235191e-01	9.797345e-01	1.046781e+00	1.090123e+00	1.122334e+00	1.160345e+00	1.186211e+00	1.199920e+00	1.220572e+00	1.227458e+00	1.221497e+00	1.223329e+00	1.214359e+00	1.207473e+00	1.201876e+00	1.193031e+00	1.194105e+00	1.196591e+00	1.199261e+00	1.208872e+00	1.213143e+00	1.221113e+00	1.228875e+00	1.234957e+00	1.242933e+00	1.248579e+00	1.254772e+00	1.260469e+00	1.266340e+00	1.272224e+00	1.278131e+00	1.284264e+00	1.290819e+00	1.297585e+00	1.310937e+00	1.305613e+00	1.329736e+00	1.462741e+00	1.408139e+00	1.413810e+00	1.421055e+00	1.421322e+00	1.425225e+00	1.427900e+00	1.431747e+00	1.434701e+00	1.438899e+00	1.443508e+00	1.447934e+00	1.457507e+00	1.459234e+00	1.471616e+00	1.476508e+00	1.474480e+00	1.484510e+00	1.472379e+00	1.476412e+00	1.468412e+00	1.436465e+00	1.416059e+00	1.379935e+00	1.329133e+00	1.289034e+00	1.219758e+00	1.160412e+00	1.125969e+00	1.082766e+00	1.087563e+00	1.102297e+00	1.120053e+00	1.156972e+00	1.176346e+00	1.195294e+00	1.214840e+00	1.225035e+00	1.230023e+00	1.234924e+00	1.233809e+00	1.234378e+00	1.230868e+00	1.221854e+00	1.214683e+00	1.199155e+00	1.179029e+00	1.159294e+00	1.093755e+00	9.593155e-01	8.747144e-01	8.607018e-01	9.103154e-01	9.788763e-01	1.018295e+00	1.083197e+00	1.131889e+00	1.176457e+00	1.228458e+00	1.261072e+00	1.279702e+00	1.312754e+00	1.320417e+00	1.305215e+00	1.302188e+00	1.281312e+00	1.254664e+00	1.228590e+00	1.187639e+00	1.145581e+00	1.110968e+00	1.048830e+00	1.032612e+00	1.044069e+00	1.047326e+00	1.079630e+00	1.081017e+00	1.116703e+00	1.170371e+00	1.192217e+00	1.239726e+00	1.273065e+00	1.306148e+00	1.349968e+00	1.376158e+00	1.405916e+00	1.434406e+00	1.456190e+00	1.474427e+00	1.491876e+00	1.504441e+00	1.520207e+00	1.533874e+00	1.553398e+00	1.580334e+00	1.606626e+00	1.619944e+00	1.703589e+00	
VECTORS Momentum double
-9.449422e+00	2.008928e+02	0.0	1.540912e+02	1.987375e+02	0.0	1.989319e+02	1.995806e+02	0.0	2.395008e+02	1.790271e+02	0.0	2.652169e+02	1.593166e+02	0.0	2.791379e+02	1.332455e+02	0.0	2.884161e+02	1.166856e+02	0.0	2.925626e+02	9.939315e+01	0.0	2.979852e+02	9.022364e+01	0.0	3.015309e+02	8.048818e+01	0.0	3.038437e+02	7.745850e+01	0.0	3.041695e+02	7.564022e+01	0.0	3.041030e+02	7.736087e+01	0.0	3.050291e+02	8.000661e+01	0.0	3.090697e+02	8.252803e+01	0.0	3.109868e+02	7.362777e+01	0.0	3.072627e+02	5.569838e+01	0.0	2.998434e+02	3.678842e+01	0.0	2.863941e+02	1.510724e+01	0.0	2.699245e+02	-3.469924e+00	0.0	2.579427e+02	-1.409998e+01	0.0	2.516944e+02	-2.064175e+01	0.0	2.453076e+02	-2.549693e+01	0.0	2.522294e+02	-2.422803e+01	0.0	2.550001e+02	-2.140045e+01	0.0	2.663149e+02	-1.947950e+01	0.0	2.651468e+02	-8.313754e+00	0.0	2.561694e+02	-2.477280e+00	0.0	2.516680e+02	5.376104e+00	0.0	2.548170e+02	1.513823e+01	0.0	2.570288e+02	1.810428e+01	0.0	2.596121e+02	2.392095e+01	0.0	2.637281e+02	2.872505e+01	0.0	2.670921e+02	2.955970e+01	0.0	2.711536e+02	3.122570e+01	0.0	2.750028e+02	3.164076e+01	0.0	2.779753e+02	2.891489e+01	0.0	2.806440e+02	2.656719e+01	0.0	2.836147e+02	2.424941e+01	0.0	2.845439e+02	1.982284e+01	0.0	2.870647e+02	1.799015e+01	0.0	2.876712e+02	1.289080e+01	0.0	2.875693e+02	8.212615e+00	0.0	2.879967e+02	5.080160e+00	0.0	2.859025e+02	-6.789223e-01	0.0	2.847845e+02	-3.239967e+00	0.0	2.823583e+02	-6.556924e+00	0.0	2.779486e+02	-9.735155e+00	0.0	2.745451e+02	-9.074646e+00	0.0	2.719241e+02	-8.228450e+00	0.0	2.677481e+02	-7.382021e+00	0.0	2.658221e+02	-2.377370e+00	0.0	2.650841e+02	1.932207e+00	0.0	2.645373e+02	5.708519e+00	0.0	2.676096e+02	1.256722e+01	0.0	2.712335e+02	1.538695e+01	0.0	2.748384e+02	1.624007e+01	0.0	2.802233e+02	1.765312e+01	0.0	2.851729e+02	1.415412e+01	0.0	2.867892e+02	6.745099e+00	0.0	2.912543e+02	3.613838e+00	0.0	2.890501e+02	-1.036547e+01	0.0	2.833768e+02	-2.500946e+01	0.0	2.871710e+02	-3.165411e+01	0.0	2.808187e+02	-4.309235e+01	0.0	2.749202e+02	-4.839461e+01	0.0	2.685431e+02	-5.202352e+01	0.0	2.585586e+02	-5.534879e+01	0.0	2.503373e+02	-5.278533e+01	0.0	2.445769e+02	-4.880452e+01	0.0	2.374297e+02	-4.623073e+01	0.0	2.337892e+02	-3.826171e+01	0.0	2.346037e+02	-3.069446e+01	0.0	2.343727e+02	-2.722241e+01	0.0	2.363666e+02	-2.217791e+01	0.0	2.390313e+02	-2.049211e+01	0.0	2.414175e+02	-1.995204e+01	0.0	2.446141e+02	-2.036140e+01	0.0	2.455002e+02	-2.430185e+01	0.0	2.451575e+02	-2.726335e+01	0.0	2.441900e+02	-3.026056e+01	0.0	2.414179e+02	-3.388345e+01	0.0	2.393114e+02	-3.509452e+01	0.0	2.364650e+02	-3.732381e+01	0.0	2.333586e+02	-3.849378e+01	0.0	2.304201e+02	-3.907213e+01	0.0	2.271225e+02	-3.985074e+01	0.0	2.241457e+02	-3.972147e+01	0.0	2.212511e+02	-3.984544e+01	0.0	2.184338e+02	-3.971666e+01	0.0	2.156164e+02	-3.969355e+01	0.0	2.127091e+02	-3.965276e+01	0.0	2.097349e+02	-3.947393e+01	0.0	2.065672e+02	-3.930074e+01	0.0	2.031440e+02	-3.907564e+01	0.0	1.993606e+02	-3.883143e+01	0.0	1.944337e+02	-3.834360e+01	0.0	1.901791e+02	-3.774963e+01	0.0	1.740689e+02	-3.766377e+01	0.0	1.930112e+02	-8.909279e+00	0.0	2.888891e+02	-1.767643e+01	0.0	2.605080e+02	-8.171295e+00	0.0	2.576425e+02	-5.463225e+00	0.0	2.595068e+02	-4.207860e+00	0.0	2.566800e+02	-1.877606e+00	0.0	2.557381e+02	-1.285801e-01	0.0	2.543607e+02	1.663384e+00	0.0	2.526621e+02	3.193950e+00	0.0	2.508076e+02	5.144723e+00	0.0	2.489370e+02	6.708258e+00	0.0	2.465506e+02	8.483781e+00	0.0	2.437890e+02	1.055332e+01	0.0	2.403348e+02	1.264366e+01	0.0	2.365967e+02	1.734766e+01	0.0	2.327709e+02	1.981375e+01	0.0	2.278484e+02	2.777881e+01	0.0	2.259403e+02	3.661497e+01	0.0	2.236057e+02	4.249087e+01	0.0	2.209469e+02	5.556210e+01	0.0	2.230053e+02	6.348589e+01	0.0	2.217414e+02	7.666690e+01	0.0	2.270435e+02	9.318307e+01	0.0	2.401448e+02	1.011698e+02	0.0	2.497773e+02	1.098892e+02	0.0	2.623294e+02	1.161396e+02	0.0	2.785268e+02	1.135844e+02	0.0	2.898442e+02	1.110007e+02	0.0	3.057383e+02	1.008794e+02	0.0	3.166316e+02	8.483839e+01	0.0	3.180525e+02	7.456893e+01	0.0	3.254606e+02	5.867881e+01	0.0	3.257888e+02	4.783413e+01	0.0	3.247413e+02	4.003680e+01	0.0	3.249451e+02	3.125671e+01	0.0	3.211079e+02	2.929723e+01	0.0	3.195846e+02	2.719040e+01	0.0	3.175792e+02	2.589898e+01	0.0	3.148763e+02	2.747135e+01	0.0	3.135695e+02	2.908849e+01	0.0	3.129144e+02	3.010649e+01	0.0	3.118694e+02	3.229908e+01	0.0	3.122421e+02	3.366282e+01	0.0	3.122392e+02	3.580297e+01	0.0	3.126998e+02	3.817900e+01	0.0	3.142171e+02	3.926051e+01	0.0	3.147416e+02	4.128180e+01	0.0	3.168404e+02	4.285662e+01	0.0	3.185710e+02	4.035756e+01	0.0	3.192404e+02	3.776233e+01	0.0	3.181893e+02	3.493111e+01	0.0	3.191755e+02	2.685043e+01	0.0	3.199242e+02	2.163629e+01	0.0	3.282308e+02	7.918721e+00	0.0	3.332981e+02	-6.242429e+00	0.0	3.317825e+02	-1.318072e+01	0.0	3.341480e+02	-2.677316e+01	0.0	3.298169e+02	-3.231098e+01	0.0	3.257944e+02	-3.581954e+01	0.0	3.208474e+02	-3.939914e+01	0.0	3.140953e+02	-3.538574e+01	0.0	3.100214e+02	-2.978476e+01	0.0	3.066546e+02	-2.674323e+01	0.0	3.029785e+02	-1.465655e+01	0.0	3.044042e+02	-3.628170e+00	0.0	3.078066e+02	-6.407945e-02	0.0	3.104607e+02	7.055561e+00	0.0	3.160898e+02	1.041760e+01	0.0	3.212001e+02	1.033345e+01	0.0	3.251847e+02	1.043817e+01	0.0	3.297234e+02	5.568802e+00	0.0	3.330553e+02	-3.236836e+00	0.0	3.312482e+02	-7.460521e+00	0.0	3.338963e+02	-2.142285e+01	0.0	3.333634e+02	-3.434927e+01	0.0	3.302322e+02	-4.120947e+01	0.0	3.308013e+02	-5.573661e+01	0.0	3.253635e+02	-6.113794e+01	0.0	3.244067e+02	-7.610968e+01	0.0	3.184238e+02	-8.997831e+01	0.0	3.102584e+02	-9.354014e+01	0.0	3.038090e+02	-1.063371e+02	0.0	2.926663e+02	-1.103664e+02	0.0	2.830032e+02	-1.151610e+02	0.0	2.718227e+02	-1.204624e+02	0.0	2.606207e+02	-1.179804e+02	0.0	2.502222e+02	-1.179889e+02	0.0	2.388229e+02	-1.155760e+02	0.0	2.285299e+02	-1.099150e+02	0.0	2.197058e+02	-1.050589e+02	0.0	2.113206e+02	-1.007317e+02	0.0	2.030061e+02	-9.648038e+01	0.0	1.930904e+02	-9.464936e+01	0.0	1.803914e+02	-9.244925e+01	0.0	1.626078e+02	-9.166091e+01	0.0	1.366457e+02	-8.693905e+01	0.0	1.042455e+02	-7.236191e+01	0.0	6.245034e+01	-4.715519e+01	0.0	-2.086059e+01	1.374040e+01	0.0	
SCALARS Energy double 1
LOOKUP_TABLE default
3.451860e+05	2.724085e+05	2.699421e+05	2.479293e+05	2.330202e+05	2.192436e+05	2.128937e+05	2.076728e+05	2.111371e+05	2.207424e+05	2.370419e+05	2.475422e+05	2.516101e+05	2.497728e+05	2.427055e+05	2.263182e+05	2.059305e+05	1.867323e+05	1.673213e+05	1.514595e+05	1.414597e+05	1.358890e+05	1.321017e+05	1.359312e+05	1.396077e+05	1.591182e+05	2.150419e+05	2.597691e+05	2.673135e+05	2.671162e+05	2.635506e+05	2.638092e+05	2.617815e+05	2.576598e+05	2.549358e+05	2.510110e+05	2.458092e+05	2.425030e+05	2.394737e+05	2.357994e+05	2.345661e+05	2.315209e+05	2.306542e+05	2.319292e+05	2.323745e+05	2.361210e+05	2.391589e+05	2.426795e+05	2.477772e+05	2.510023e+05	2.532524e+05	2.565405e+05	2.569557e+05	2.562191e+05	2.559607e+05	2.514939e+05	2.464521e+05	2.416238e+05	2.335861e+05	2.243530e+05	2.182565e+05	2.060336e+05	2.016403e+05	2.131865e+05	2.242351e+05	2.376398e+05	2.462099e+05	2.522891e+05	2.596916e+05	2.647330e+05	2.671811e+05	2.712624e+05	2.727024e+05	2.714054e+05	2.718735e+05	2.701173e+05	2.687958e+05	2.678009e+05	2.660090e+05	2.662334e+05	2.667215e+05	2.671519e+05	2.690699e+05	2.698313e+05	2.713553e+05	2.728440e+05	2.739643e+05	2.754989e+05	2.765500e+05	2.777222e+05	2.787935e+05	2.799007e+05	2.810096e+05	2.821180e+05	2.832663e+05	2.844932e+05	2.857188e+05	2.883871e+05	2.866064e+05	2.923780e+05	3.253919e+05	3.122614e+05	3.133097e+05	3.149425e+05	3.148510e+05	3.156305e+05	3.161283e+05	3.168600e+05	3.173962e+05	3.181973e+05	3.190628e+05	3.198745e+05	3.217527e+05	3.219599e+05	3.244332e+05	3.252939e+05	3.248323e+05	3.269169e+05	3.243368e+05	3.253773e+05	3.237958e+05	3.175026e+05	3.139377e+05	3.069622e+05	2.970828e+05	2.895677e+05	2.757994e+05	2.644080e+05	2.578112e+05	2.488892e+05	2.502155e+05	2.530967e+05	2.565502e+05	2.640597e+05	2.677290e+05	2.715070e+05	2.753897e+05	2.773116e+05	2.782615e+05	2.792379e+05	2.789467e+05	2.791022e+05	2.783907e+05	2.765748e+05	2.752098e+05	2.720538e+05	2.680709e+05	2.641117e+05	2.506897e+05	2.232962e+05	2.064465e+05	2.037180e+05	2.143284e+05	2.284974e+05	2.362954e+05	2.497227e+05	2.593229e+05	2.681716e+05	2.785558e+05	2.847944e+05	2.883452e+05	2.949958e+05	2.963010e+05	2.931930e+05	2.927872e+05	2.886179e+05	2.834756e+05	2.784412e+05	2.702847e+05	2.619924e+05	2.551900e+05	2.424026e+05	2.394200e+05	2.417845e+05	2.422303e+05	2.490199e+05	2.489136e+05	2.563729e+05	2.671717e+05	2.711276e+05	2.807865e+05	2.870561e+05	2.934622e+05	3.021093e+05	3.069303e+05	3.126641e+05	3.180767e+05	3.220989e+05	3.254914e+05	3.287768e+05	3.310511e+05	3.340183e+05	3.364634e+05	3.400750e+05	3.450832e+05	3.498455e+05	3.518419e+05	3.694935e+05	
SCALARS Pressure double 1
LOOKUP_TABLE default
1.329377e+05	9.861350e+04	9.475597e+04	8.275375e+04	7.429488e+04	6.743311e+04	6.392420e+04	6.153502e+04	6.298243e+04	6.780025e+04	7.572888e+04	8.085196e+04	8.276349e+04	8.169203e+04	7.768767e+04	6.956765e+04	6.011653e+04	5.142531e+04	4.320574e+04	3.711988e+04	3.341200e+04	3.117567e+04	3.006536e+04	3.102023e+04	3.277731e+04	4.213400e+04	7.108251e+04	9.259830e+04	9.634508e+04	9.594863e+04	9.415005e+04	9.398856e+04	9.265576e+04	9.046865e+04	8.881455e+04	8.662351e+04	8.394099e+04	8.213767e+04	8.040905e+04	7.860717e+04	7.774155e+04	7.624860e+04	7.586643e+04	7.643416e+04	7.690143e+04	7.880923e+04	8.051152e+04	8.263412e+04	8.535714e+04	8.710949e+04	8.855602e+04	9.024258e+04	9.050147e+04	9.021630e+04	8.977910e+04	8.737268e+04	8.468118e+04	8.185072e+04	7.752294e+04	7.293264e+04	6.939297e+04	6.357202e+04	6.201830e+04	6.719826e+04	7.321690e+04	8.016778e+04	8.475673e+04	8.845660e+04	9.259464e+04	9.540607e+04	9.712009e+04	9.930904e+04	9.995951e+04	9.944686e+04	9.953504e+04	9.856772e+04	9.779876e+04	9.709426e+04	9.620085e+04	9.630239e+04	9.656913e+04	9.694954e+04	9.794927e+04	9.848453e+04	9.938031e+04	1.002482e+05	1.009745e+05	1.018614e+05	1.025244e+05	1.032324e+05	1.038907e+05	1.045661e+05	1.052437e+05	1.059286e+05	1.066421e+05	1.074056e+05	1.082340e+05	1.096196e+05	1.097838e+05	1.113362e+05	1.187030e+05	1.152562e+05	1.159295e+05	1.164965e+05	1.166690e+05	1.170744e+05	1.173887e+05	1.178250e+05	1.181858e+05	1.186592e+05	1.191930e+05	1.197251e+05	1.207532e+05	1.210705e+05	1.223563e+05	1.229809e+05	1.228267e+05	1.237873e+05	1.226843e+05	1.228682e+05	1.220208e+05	1.186149e+05	1.159844e+05	1.119924e+05	1.064483e+05	1.017889e+05	9.452470e+04	8.789840e+04	8.403815e+04	7.984357e+04	7.997375e+04	8.156585e+04	8.350317e+04	8.720230e+04	8.941507e+04	9.138971e+04	9.344136e+04	9.461461e+04	9.517938e+04	9.569065e+04	9.564335e+04	9.566063e+04	9.530662e+04	9.438594e+04	9.357366e+04	9.201525e+04	8.988791e+04	8.785521e+04	8.137944e+04	6.795647e+04	5.912089e+04	5.759514e+04	6.204765e+04	6.869403e+04	7.286365e+04	7.914090e+04	8.432387e+04	8.900619e+04	9.440990e+04	9.807282e+04	1.001782e+05	1.035627e+05	1.045838e+05	1.030764e+05	1.025632e+05	1.003945e+05	9.744633e+04	9.456433e+04	9.028793e+04	8.581122e+04	8.210491e+04	7.602705e+04	7.408597e+04	7.519968e+04	7.574275e+04	7.876080e+04	7.928836e+04	8.266343e+04	8.815841e+04	9.083514e+04	9.560003e+04	9.945255e+04	1.030905e+05	1.077473e+05	1.108778e+05	1.141784e+05	1.174156e+05	1.200073e+05	1.221517e+05	1.241638e+05	1.257043e+05	1.275236e+05	1.292280e+05	1.315440e+05	1.347137e+05	1.379336e+05	1.399807e+05	1.477241e+05	
SCALARS Temperature double 1
LOOKUP_TABLE default
2.940672e+02	2.811095e+02	2.747970e+02	2.646760e+02	2.556900e+02	2.487824e+02	2.442362e+02	2.417540e+02	2.430067e+02	2.485193e+02	2.560791e+02	2.603958e+02	2.617855e+02	2.606640e+02	2.564529e+02	2.486691e+02	2.389870e+02	2.283764e+02	2.170563e+02	2.081858e+02	2.020793e+02	1.973649e+02	1.960842e+02	1.965141e+02	2.011003e+02	2.214272e+02	2.627524e+02	2.779368e+02	2.802041e+02	2.795075e+02	2.783810e+02	2.778281e+02	2.764852e+02	2.748510e+02	2.732624e+02	2.713487e+02	2.692328e+02	2.675952e+02	2.658600e+02	2.644292e+02	2.632749e+02	2.620264e+02	2.617754e+02	2.621583e+02	2.629827e+02	2.646681e+02	2.663756e+02	2.686556e+02	2.709937e+02	2.724859e+02	2.740148e+02	2.752278e+02	2.754819e+02	2.754239e+02	2.746406e+02	2.727004e+02	2.704724e+02	2.676216e+02	2.635460e+02	2.594698e+02	2.551472e+02	2.493882e+02	2.487808e+02	2.534793e+02	2.603354e+02	2.667930e+02	2.708500e+02	2.745609e+02	2.779899e+02	2.801848e+02	2.819599e+02	2.834364e+02	2.836925e+02	2.836148e+02	2.834412e+02	2.827600e+02	2.821540e+02	2.814260e+02	2.809037e+02	2.809474e+02	2.811402e+02	2.816192e+02	2.822612e+02	2.828046e+02	2.835142e+02	2.841837e+02	2.848328e+02	2.854908e+02	2.860498e+02	2.866035e+02	2.871276e+02	2.876544e+02	2.881791e+02	2.887142e+02	2.892710e+02	2.898624e+02	2.905751e+02	2.912973e+02	2.929234e+02	2.916762e+02	2.826993e+02	2.851341e+02	2.856494e+02	2.855830e+02	2.859522e+02	2.861600e+02	2.863908e+02	2.866829e+02	2.869685e+02	2.872773e+02	2.876484e+02	2.880492e+02	2.886146e+02	2.890304e+02	2.896424e+02	2.901564e+02	2.901913e+02	2.904848e+02	2.902684e+02	2.899094e+02	2.894786e+02	2.876568e+02	2.853308e+02	2.827226e+02	2.789977e+02	2.750847e+02	2.699617e+02	2.638756e+02	2.600043e+02	2.568833e+02	2.561671e+02	2.577746e+02	2.597136e+02	2.625642e+02	2.647927e+02	2.663502e+02	2.679480e+02	2.690545e+02	2.695627e+02	2.699354e+02	2.700457e+02	2.699700e+02	2.697378e+02	2.691028e+02	2.683620e+02	2.673098e+02	2.655871e+02	2.640003e+02	2.591940e+02	2.467742e+02	2.354535e+02	2.331114e+02	2.374454e+02	2.444677e+02	2.492687e+02	2.545213e+02	2.595237e+02	2.635570e+02	2.677241e+02	2.709189e+02	2.727062e+02	2.748211e+02	2.759202e+02	2.751108e+02	2.743774e+02	2.729514e+02	2.705630e+02	2.681334e+02	2.648352e+02	2.609449e+02	2.574531e+02	2.525186e+02	2.499361e+02	2.509096e+02	2.519356e+02	2.541356e+02	2.555095e+02	2.578731e+02	2.624041e+02	2.654170e+02	2.686351e+02	2.721420e+02	2.749518e+02	2.780438e+02	2.806768e+02	2.829145e+02	2.851570e+02	2.870912e+02	2.886067e+02	2.899296e+02	2.910753e+02	2.922256e+02	2.934926e+02	2.949976e+02	2.969567e+02	2.990788e+02	3.010222e+02	3.020765e+02	
SCALARS Mach double 1
LOOKUP_TABLE default
3.714842e-01	6.122382e-01	7.059074e-01	8.417570e-01	9.535077e-01	1.035978e+00	1.089173e+00	1.117951e+00	1.103448e+00	1.039076e+00	9.487878e-01	8.957618e-01	8.783995e-01	8.924226e-01	9.442447e-01	1.037312e+00	1.149859e+00	1.271184e+00	1.400338e+00	1.502512e+00	1.573803e+00	1.629556e+00	1.644826e+00	1.639694e+00	1.585325e+00	1.350386e+00	8.662259e-01	6.604476e-01	6.262614e-01	6.369013e-01	6.538476e-01	6.620559e-01	6.817130e-01	7.051411e-01	7.274494e-01	7.537750e-01	7.822649e-01	8.039159e-01	8.265187e-01	8.449167e-01	8.596136e-01	8.753737e-01	8.785271e-01	8.737156e-01	8.633148e-01	8.418583e-01	8.198372e-01	7.899326e-01	7.585976e-01	7.381996e-01	7.169373e-01	6.997839e-01	6.961567e-01	6.969867e-01	7.081219e-01	7.352399e-01	7.656489e-01	8.035690e-01	8.561725e-01	9.072462e-01	9.600779e-01	1.028833e+00	1.035997e+00	9.801601e-01	8.965122e-01	8.144068e-01	7.605456e-01	7.092482e-01	6.596614e-01	6.265581e-01	5.988540e-01	5.750743e-01	5.708751e-01	5.721517e-01	5.749973e-01	5.860571e-01	5.957684e-01	6.072818e-01	6.154459e-01	6.147669e-01	6.117601e-01	6.042428e-01	5.940583e-01	5.853378e-01	5.738011e-01	5.627557e-01	5.518850e-01	5.406948e-01	5.310443e-01	5.213489e-01	5.120361e-01	5.025387e-01	4.929304e-01	4.829746e-01	4.724306e-01	4.610149e-01	4.469332e-01	4.322701e-01	3.975725e-01	4.244043e-01	5.870351e-01	5.467838e-01	5.379707e-01	5.391130e-01	5.327404e-01	5.291256e-01	5.250894e-01	5.199468e-01	5.148785e-01	5.093512e-01	5.026481e-01	4.953243e-01	4.848398e-01	4.770098e-01	4.652883e-01	4.552490e-01	4.545618e-01	4.487372e-01	4.530383e-01	4.600972e-01	4.684489e-01	5.024951e-01	5.434329e-01	5.866600e-01	6.446078e-01	7.018214e-01	7.725190e-01	8.519801e-01	9.006253e-01	9.390041e-01	9.477194e-01	9.281114e-01	9.042291e-01	8.686015e-01	8.402612e-01	8.201665e-01	7.992789e-01	7.846379e-01	7.778616e-01	7.728720e-01	7.713904e-01	7.724070e-01	7.755193e-01	7.839952e-01	7.938187e-01	8.076562e-01	8.300430e-01	8.503915e-01	9.106547e-01	1.059563e+00	1.190401e+00	1.217180e+00	1.167570e+00	1.086480e+00	1.030243e+00	9.676322e-01	9.065793e-01	8.560332e-01	8.022236e-01	7.596123e-01	7.351597e-01	7.055655e-01	6.898706e-01	7.014499e-01	7.118381e-01	7.317660e-01	7.644264e-01	7.968364e-01	8.397164e-01	8.889203e-01	9.320465e-01	9.916605e-01	1.022358e+00	1.010822e+00	9.986178e-01	9.722756e-01	9.556939e-01	9.269049e-01	8.706211e-01	8.322363e-01	7.902049e-01	7.429306e-01	7.037108e-01	6.588615e-01	6.189692e-01	5.835625e-01	5.463936e-01	5.126877e-01	4.849883e-01	4.597009e-01	4.368222e-01	4.127713e-01	3.847867e-01	3.489932e-01	2.966597e-01	2.278254e-01	1.388856e-01	4.208305e-02	
SCALARS Pressure_Coefficient double 1
LOOKUP_TABLE default