# vtk DataFile Version 3.0
vtk output
ASCII
DATASET UNSTRUCTURED_GRID
POINTS 698 double
0.000000e+00	0.000000e+00	0.0	3.098279e-03	3.924368e-03	0.0	6.162432e-03	7.805512e-03	0.0	1.020093e-02	1.054669e-02	0.0	1.423992e-02	1.321022e-02	0.0	1.854451e-02	1.527535e-02	0.0	2.288754e-02	1.716350e-02	0.0	2.722084e-02	1.894270e-02	0.0	3.157036e-02	2.055108e-02	0.0	3.587513e-02	2.214291e-02	0.0	4.013751e-02	2.371455e-02	0.0	4.435743e-02	2.526890e-02	0.0	4.853518e-02	2.680772e-02	0.0	5.264761e-02	2.839480e-02	0.0	5.671767e-02	2.997180e-02	0.0	6.074824e-02	3.153350e-02	0.0	6.469141e-02	3.320000e-02	0.0	6.859347e-02	3.485945e-02	0.0	7.245876e-02	3.650325e-02	0.0	7.626146e-02	3.819231e-02	0.0	8.002116e-02	3.988372e-02	0.0	8.374644e-02	4.155965e-02	0.0	8.746771e-02	4.314965e-02	0.0	9.120270e-02	4.461331e-02	0.0	9.490449e-02	4.606397e-02	0.0	9.857370e-02	4.750186e-02	0.0	1.022863e-01	4.870079e-02	0.0	1.060198e-01	4.973002e-02	0.0	1.097214e-01	5.075046e-02	0.0	1.133917e-01	5.176226e-02	0.0	1.170401e-01	5.272407e-02	0.0	1.207430e-01	5.327714e-02	0.0	1.244154e-01	5.382566e-02	0.0	1.280580e-01	5.436973e-02	0.0	1.316712e-01	5.490941e-02	0.0	1.352556e-01	5.544478e-02	0.0	1.388280e-01	5.583032e-02	0.0	1.423856e-01	5.609420e-02	0.0	1.459157e-01	5.635604e-02	0.0	1.494188e-01	5.661588e-02	0.0	1.528952e-01	5.687374e-02	0.0	1.563456e-01	5.712966e-02	0.0	1.597703e-01	5.738368e-02	0.0	1.631741e-01	5.756491e-02	0.0	1.665541e-01	5.772715e-02	0.0	1.699098e-01	5.788822e-02	0.0	1.732415e-01	5.804814e-02	0.0	1.765497e-01	5.820693e-02	0.0	1.798347e-01	5.836461e-02	0.0	1.830969e-01	5.852119e-02	0.0	1.863368e-01	5.867671e-02	0.0	1.895538e-01	5.884948e-02	0.0	1.927491e-01	5.902384e-02	0.0	1.959231e-01	5.919705e-02	0.0	1.990762e-01	5.936911e-02	0.0	2.022089e-01	5.954006e-02	0.0	2.053214e-01	5.970991e-02	0.0	2.084140e-01	5.987867e-02	0.0	2.114872e-01	6.004637e-02	0.0	2.145412e-01	6.021303e-02	0.0	2.175739e-01	6.041722e-02	0.0	2.205877e-01	6.062829e-02	0.0	2.235832e-01	6.083809e-02	0.0	2.265609e-01	6.104663e-02	0.0	2.295210e-01	6.125394e-02	0.0	2.324638e-01	6.146004e-02	0.0	2.353896e-01	6.166495e-02	0.0	2.382987e-01	6.186869e-02	0.0	2.411914e-01	6.207128e-02	0.0	2.440679e-01	6.227274e-02	0.0	2.469287e-01	6.246965e-02	0.0	2.497741e-01	6.266412e-02	0.0	2.526041e-01	6.285754e-02	0.0	2.554189e-01	6.304992e-02	0.0	2.582190e-01	6.324129e-02	0.0	2.610044e-01	6.343167e-02	0.0	2.637755e-01	6.362106e-02	0.0	2.665325e-01	6.380949e-02	0.0	2.692756e-01	6.399697e-02	0.0	2.720050e-01	6.418352e-02	0.0	2.747211e-01	6.436915e-02	0.0	2.774255e-01	6.452756e-02	0.0	2.801184e-01	6.466107e-02	0.0	2.827986e-01	6.479394e-02	0.0	2.854662e-01	6.492620e-02	0.0	2.881215e-01	6.505784e-02	0.0	2.907647e-01	6.518888e-02	0.0	2.933961e-01	6.531933e-02	0.0	2.960157e-01	6.544921e-02	0.0	2.986238e-01	6.557851e-02	0.0	3.012206e-01	6.570725e-02	0.0	3.038064e-01	6.583544e-02	0.0	3.063812e-01	6.596310e-02	0.0	3.089460e-01	6.607072e-02	0.0	3.115023e-01	6.611967e-02	0.0	3.140482e-01	6.616841e-02	0.0	3.165840e-01	6.621696e-02	0.0	3.191098e-01	6.626532e-02	0.0	3.216258e-01	6.631349e-02	0.0	3.241321e-01	6.636147e-02	0.0	3.266290e-01	6.640928e-02	0.0	3.291166e-01	6.645691e-02	0.0	3.315952e-01	6.650436e-02	0.0	3.340647e-01	6.655164e-02	0.0	3.365255e-01	6.659876e-02	0.0	3.389777e-01	6.664570e-02	0.0	3.414214e-01	6.669249e-02	0.0	3.438573e-01	6.668743e-02	0.0	3.462850e-01	6.667870e-02	0.0	3.487047e-01	6.667000e-02	0.0	3.511167e-01	6.666133e-02	0.0	3.535209e-01	6.665269e-02	0.0	3.559177e-01	6.664408e-02	0.0	3.583070e-01	6.663549e-02	0.0	3.606891e-01	6.662693e-02	0.0	3.630642e-01	6.661839e-02	0.0	3.654323e-01	6.660988e-02	0.0	3.677936e-01	6.660139e-02	0.0	3.701483e-01	6.659293e-02	0.0	3.724965e-01	6.658449e-02	0.0	3.748383e-01	6.657607e-02	0.0	3.771737e-01	6.655235e-02	0.0	3.795029e-01	6.652004e-02	0.0	3.818262e-01	6.648782e-02	0.0	3.841437e-01	6.645568e-02	0.0	3.864554e-01	6.642361e-02	0.0	3.887616e-01	6.639163e-02	0.0	3.910624e-01	6.635972e-02	0.0	3.933578e-01	6.632788e-02	0.0	3.956481e-01	6.629611e-02	0.0	3.979333e-01	6.626442e-02	0.0	4.002135e-01	6.623279e-02	0.0	4.024890e-01	6.620123e-02	0.0	4.047598e-01	6.616973e-02	0.0	4.070260e-01	6.613830e-02	0.0	4.092878e-01	6.610693e-02	0.0	4.115453e-01	6.607610e-02	0.0	4.137986e-01	6.604580e-02	0.0	4.160479e-01	6.601556e-02	0.0	4.182931e-01	6.598538e-02	0.0	4.205345e-01	6.595524e-02	0.0	4.227722e-01	6.592515e-02	0.0	4.250063e-01	6.589512e-02	0.0	4.272369e-01	6.586513e-02	0.0	4.294641e-01	6.583518e-02	0.0	4.316881e-01	6.580528e-02	0.0	4.339089e-01	6.577542e-02	0.0	4.361266e-01	6.574561e-02	0.0	4.383414e-01	6.571583e-02	0.0	4.405534e-01	6.568609e-02	0.0	4.427627e-01	6.565638e-02	0.0	4.449695e-01	6.562672e-02	0.0	4.471734e-01	6.558333e-02	0.0	4.493749e-01	6.553420e-02	0.0	4.515742e-01	6.548513e-02	0.0	4.537712e-01	6.543610e-02	0.0	4.559662e-01	6.538712e-02	0.0	4.581593e-01	6.533818e-02	0.0	4.603505e-01	6.528929e-02	0.0	4.625401e-01	6.524043e-02	0.0	4.647279e-01	6.519161e-02	0.0	4.669143e-01	6.514282e-02	0.0	4.690993e-01	6.509407e-02	0.0	4.712829e-01	6.504534e-02	0.0	4.734654e-01	6.499664e-02	0.0	4.756467e-01	6.494797e-02	0.0	4.778271e-01	6.489931e-02	0.0	4.800066e-01	6.485068e-02	0.0	4.821837e-01	6.476250e-02	0.0	4.843584e-01	6.463404e-02	0.0	4.865326e-01	6.450562e-02	0.0	4.887064e-01	6.437723e-02	0.0	4.908797e-01	6.424886e-02	0.0	4.930529e-01	6.412050e-02	0.0	4.952258e-01	6.399216e-02	0.0	4.973987e-01	6.386381e-02	0.0	4.995717e-01	6.373547e-02	0.0	5.017448e-01	6.360711e-02	0.0	5.039182e-01	6.347874e-02	0.0	5.060919e-01	6.335035e-02	0.0	5.082661e-01	6.322193e-02	0.0	5.104409e-01	6.309347e-02	0.0	5.126163e-01	6.296498e-02	0.0	5.147926e-01	6.283644e-02	0.0	5.169680e-01	6.268951e-02	0.0	5.191331e-01	6.241936e-02	0.0	5.212993e-01	6.214908e-02	0.0	5.234667e-01	6.187865e-02	0.0	5.256354e-01	6.160806e-02	0.0	5.278054e-01	6.133729e-02	0.0	5.299770e-01	6.106634e-02	0.0	5.321502e-01	6.079518e-02	0.0	5.343252e-01	6.052381e-02	0.0	5.365019e-01	6.025221e-02	0.0	5.386806e-01	5.998037e-02	0.0	5.408613e-01	5.970828e-02	0.0	5.430441e-01	5.943592e-02	0.0	5.452292e-01	5.916328e-02	0.0	5.474167e-01	5.889035e-02	0.0	5.496066e-01	5.861710e-02	0.0	5.517991e-01	5.834354e-02	0.0	5.539732e-01	5.793904e-02	0.0	5.561455e-01	5.750643e-02	0.0	5.583208e-01	5.707324e-02	0.0	5.604990e-01	5.663946e-02	0.0	5.626803e-01	5.620506e-02	0.0	5.648648e-01	5.577003e-02	0.0	5.670527e-01	5.533434e-02	0.0	5.692439e-01	5.489796e-02	0.0	5.714387e-01	5.446088e-02	0.0	5.736372e-01	5.402307e-02	0.0	5.758394e-01	5.358451e-02	0.0	5.780455e-01	5.314517e-02	0.0	5.802556e-01	5.270504e-02	0.0	5.824698e-01	5.226409e-02	0.0	5.846883e-01	5.182230e-02	0.0	5.869111e-01	5.137964e-02	0.0	5.891313e-01	5.090257e-02	0.0	5.913542e-01	5.041493e-02	0.0	5.935817e-01	4.992625e-02	0.0	5.958140e-01	4.943652e-02	0.0	5.980513e-01	4.894570e-02	0.0	6.002936e-01	4.845378e-02	0.0	6.025412e-01	4.796072e-02	0.0	6.047940e-01	4.746649e-02	0.0	6.070523e-01	4.697107e-02	0.0	6.093161e-01	4.647442e-02	0.0	6.115857e-01	4.597653e-02	0.0	6.138610e-01	4.547736e-02	0.0	6.161423e-01	4.497689e-02	0.0	6.184297e-01	4.447507e-02	0.0	6.207234e-01	4.397189e-02	0.0	6.230310e-01	4.350625e-02	0.0	6.253583e-01	4.310665e-02	0.0	6.276922e-01	4.270590e-02	0.0	6.300330e-01	4.230398e-02	0.0	6.323808e-01	4.190086e-02	0.0	6.347357e-01	4.149652e-02	0.0	6.370979e-01	4.109093e-02	0.0	6.394675e-01	4.068407e-02	0.0	6.418447e-01	4.027591e-02	0.0	6.442295e-01	3.986643e-02	0.0	6.466223e-01	3.945559e-02	0.0	6.490230e-01	3.904338e-02	0.0	6.514319e-01	3.862976e-02	0.0	6.538492e-01	3.821472e-02	0.0	6.562749e-01	3.779821e-02	0.0	6.587400e-01	3.764653e-02	0.0	6.612146e-01	3.749964e-02	0.0	6.636983e-01	3.735220e-02	0.0	6.661913e-01	3.720422e-02	0.0	6.686937e-01	3.705567e-02	0.0	6.712057e-01	3.690656e-02	0.0	6.737276e-01	3.675686e-02	0.0	6.762593e-01	3.660657e-02	0.0	6.788013e-01	3.645568e-02	0.0	6.813535e-01	3.630418e-02	0.0	6.839163e-01	3.615205e-02	0.0	6.864897e-01	3.599928e-02	0.0	6.890741e-01	3.584587e-02	0.0	6.916717e-01	3.589091e-02	0.0	6.942811e-01	3.599099e-02	0.0	6.969020e-01	3.609150e-02	0.0	6.995346e-01	3.619247e-02	0.0	7.021791e-01	3.629389e-02	0.0	7.048357e-01	3.639578e-02	0.0	7.075046e-01	3.649814e-02	0.0	7.101861e-01	3.660098e-02	0.0	7.128803e-01	3.670431e-02	0.0	7.155876e-01	3.680813e-02	0.0	7.183080e-01	3.691247e-02	0.0	7.210418e-01	3.701731e-02	0.0	7.237859e-01	3.718581e-02	0.0	7.265429e-01	3.737387e-02	0.0	7.293140e-01	3.756289e-02	0.0	7.320995e-01	3.775289e-02	0.0	7.348995e-01	3.794389e-02	0.0	7.377144e-01	3.813590e-02	0.0	7.405444e-01	3.832894e-02	0.0	7.433898e-01	3.852302e-02	0.0	7.462508e-01	3.871817e-02	0.0	7.491277e-01	3.891441e-02	0.0	7.520211e-01	3.910264e-02	0.0	7.549368e-01	3.915518e-02	0.0	7.578693e-01	3.920802e-02	0.0	7.608188e-01	3.926118e-02	0.0	7.637857e-01	3.931464e-02	0.0	7.667702e-01	3.936842e-02	0.0	7.697726e-01	3.942252e-02	0.0	7.727932e-01	3.947696e-02	0.0	7.758324e-01	3.953172e-02	0.0	7.788905e-01	3.958683e-02	0.0	7.819584e-01	3.938264e-02	0.0	7.850431e-01	3.910422e-02	0.0	7.881476e-01	3.882401e-02	0.0	7.912722e-01	3.854198e-02	0.0	7.944172e-01	3.825811e-02	0.0	7.975831e-01	3.797236e-02	0.0	8.007701e-01	3.768470e-02	0.0	8.039787e-01	3.739509e-02	0.0	8.071812e-01	3.689345e-02	0.0	8.103974e-01	3.632492e-02	0.0	8.136360e-01	3.575243e-02	0.0	8.168974e-01	3.517590e-02	0.0	8.201820e-01	3.459526e-02	0.0	8.234902e-01	3.401045e-02	0.0	8.268225e-01	3.342139e-02	0.0	8.301634e-01	3.274732e-02	0.0	8.335197e-01	3.202036e-02	0.0	8.369011e-01	3.128795e-02	0.0	8.403081e-01	3.054999e-02	0.0	8.437412e-01	2.980640e-02	0.0	8.472007e-01	2.905705e-02	0.0	8.506879e-01	2.830445e-02	0.0	8.542092e-01	2.757775e-02	0.0	8.577586e-01	2.684527e-02	0.0	8.613365e-01	2.610690e-02	0.0	8.649435e-01	2.536254e-02	0.0	8.685800e-01	2.461207e-02	0.0	8.722467e-01	2.385538e-02	0.0	8.759561e-01	2.315283e-02	0.0	8.796975e-01	2.244827e-02	0.0	8.834709e-01	2.173770e-02	0.0	8.872768e-01	2.102100e-02	0.0	8.911159e-01	2.029806e-02	0.0	8.949905e-01	1.957872e-02	0.0	8.989045e-01	1.887966e-02	0.0	9.028535e-01	1.817434e-02	0.0	9.068383e-01	1.746263e-02	0.0	9.108596e-01	1.674441e-02	0.0	9.149181e-01
[...]
POINT_DATA 698

SCALARS Density double 1
LOOKUP_TABLE default
1.531817e+00	1.216622e+00	1.210516e+00	1.107453e+00	1.116281e+00	1.111750e+00	1.155590e+00	1.178310e+00	1.198463e+00	1.221797e+00	1.230109e+00	1.236568e+00	1.244821e+00	1.247818e+00	1.243498e+00	1.248256e+00	1.242416e+00	1.222801e+00	1.213298e+00	1.197118e+00	1.164775e+00	1.123491e+00	1.081452e+00	1.063358e+00	1.047959e+00	9.703843e-01	8.817632e-01	8.618199e-01	8.778188e-01	8.704330e-01	7.847675e-01	7.124171e-01	7.081556e-01	7.165900e-01	7.280792e-01	7.065658e-01	6.642710e-01	6.391521e-01	6.411998e-01	6.494525e-01	6.561975e-01	6.600463e-01	6.514516e-01	6.363874e-01	6.345270e-01	6.390521e-01	6.442207e-01	6.475454e-01	6.505464e-01	6.538879e-01	6.606934e-01	6.688064e-01	6.729586e-01	6.757352e-01	6.783665e-01	6.809931e-01	6.836376e-01	6.858589e-01	6.882442e-01	6.999490e-01	7.142515e-01	7.193442e-01	7.209398e-01	7.225642e-01	7.249187e-01	7.275371e-01	7.302064e-01	7.327485e-01	7.353375e-01	7.368403e-01	7.382127e-01	7.402050e-01	7.424710e-01	7.447464e-01	7.468371e-01	7.491285e-01	7.514391e-01	7.539545e-01	7.565532e-01	7.591662e-01	7.536828e-01	7.417808e-01	7.357072e-01	7.380889e-01	7.405727e-01	7.421458e-01	7.437618e-01	7.453804e-01	7.471918e-01	7.489741e-01	7.513834e-01	7.536277e-01	7.483313e-01	7.264523e-01	7.109270e-01	7.117153e-01	7.140793e-01	7.160642e-01	7.168917e-01	7.180752e-01	7.194822e-01	7.206215e-01	7.217732e-01	7.230429e-01	7.252320e-01	7.263865e-01	7.133308e-01	6.970983e-01	6.961409e-01	6.988159e-01	7.010927e-01	7.022256e-01	7.030443e-01	7.042998e-01	7.058968e-01	7.072877e-01	7.083941e-01	7.093577e-01	7.104489e-01	7.112941e-01	7.077941e-01	7.014283e-01	6.989551e-01	7.001809e-01	7.016771e-01	7.028418e-01	7.040075e-01	7.051216e-01	7.061338e-01	7.069358e-01	7.077289e-01	7.086544e-01	7.094718e-01	7.103615e-01	7.112739e-01	7.123168e-01	7.134751e-01	7.145463e-01	7.154212e-01	7.163200e-01	7.172746e-01	7.182119e-01	7.192023e-01	7.202000e-01	7.212710e-01	7.222966e-01	7.233471e-01	7.242639e-01	7.253065e-01	7.263836e-01	7.273527e-01	7.241556e-01	7.186920e-01	7.171986e-01	7.181423e-01	7.195036e-01	7.206499e-01	7.217266e-01	7.226637e-01	7.234990e-01	7.242527e-01	7.251484e-01	7.259761e-01	7.268246e-01	7.276833e-01	7.290484e-01	7.299282e-01	7.187482e-01	6.919124e-01	6.775510e-01	6.788822e-01	6.820948e-01	6.827512e-01	6.830792e-01	6.837916e-01	6.847545e-01	6.856561e-01	6.863787e-01	6.870268e-01	6.878863e-01	6.885848e-01	6.900172e-01	6.915351e-01	6.871794e-01	6.472457e-01	6.085836e-01	6.034605e-01	6.054899e-01	6.092776e-01	6.106010e-01	6.104709e-01	6.105835e-01	6.112495e-01	6.118933e-01	6.121088e-01	6.123155e-01	6.126560e-01	6.129839e-01	6.149367e-01	6.168045e-01	5.851236e-01	5.375094e-01	5.312747e-01	5.776258e-01	7.668021e-01	1.101700e+00	1.154945e+00	1.153279e+00	1.157432e+00	1.162535e+00	1.166155e+00	1.169013e+00	1.172101e+00	1.174503e+00	1.176154e+00	1.178040e+00	1.178046e+00	1.181186e+00	1.187336e+00	1.192001e+00	1.195346e+00	1.199032e+00	1.202241e+00	1.205739e+00	1.209184e+00	1.212508e+00	1.215752e+00	1.219260e+00	1.222863e+00	1.227215e+00	1.231220e+00	1.236337e+00	1.240940e+00	1.239826e+00	1.237196e+00	1.238530e+00	1.239541e+00	1.241142e+00	1.242907e+00	1.244842e+00	1.246865e+00	1.249600e+00	1.252528e+00	1.255851e+00	1.260958e+00	1.263833e+00	1.272984e+00	1.272720e+00	1.261027e+00	1.259565e+00	1.257351e+00	1.255821e+00	1.254727e+00	1.254255e+00	1.253930e+00	1.254331e+00	1.255042e+00	1.257083e+00	1.257800e+00	1.264207e+00	1.263385e+00	1.251881e+00	1.246681e+00	1.241943e+00	1.237835e+00	1.233926e+00	1.230291e+00	1.226945e+00	1.223715e+00	1.220977e+00	1.218086e+00	1.218014e+00	1.213370e+00	1.204893e+00	1.197981e+00	1.191557e+00	1.185105e+00	1.178114e+00	1.170674e+00	1.162158e+00	1.151878e+00	1.140333e+00	1.123104e+00	1.119409e+00	1.125411e+00	1.121293e+00	1.114720e+00	1.107422e+00	1.097410e+00	1.083311e+00	1.064158e+00	1.030624e+00	1.021576e+00	1.056269e+00	1.071931e+00	1.073326e+00	1.073609e+00	1.070420e+00	1.063366e+00	1.045984e+00	1.049170e+00	1.082053e+00	1.100425e+00	1.107969e+00	1.113786e+00	1.118437e+00	1.119519e+00	1.125252e+00	1.140650e+00	1.152016e+00	1.159992e+00	1.167132e+00	1.174617e+00	1.181641e+00	1.186622e+00	1.189327e+00	1.193962e+00	1.198739e+00	1.203366e+00	1.209314e+00	1.212458e+00	1.212312e+00	1.214465e+00	1.217424e+00	1.220141e+00	1.223120e+00	1.224925e+00	1.225416e+00	1.227770e+00	1.229651e+00	1.231502e+00	1.234078e+00	1.235876e+00	1.238150e+00	1.240497e+00	1.242573e+00	1.245880e+00	1.248845e+00	1.251493e+00	1.254518e+00	1.258327e+00	1.261348e+00	1.264676e+00	1.269193e+00	1.273177e+00	1.278336e+00	1.281988e+00	1.293166e+00	1.286286e+00	1.306619e+00	1.389370e+00	1.354495e+00	1.356703e+00	1.355845e+00	1.357426e+00	1.357372e+00	1.359017e+00	1.359488e+00	1.359013e+00	1.361330e+00	1.361330e+00	1.360404e+00	1.361766e+00	1.363371e+00	1.362670e+00	1.362291e+00	1.362696e+00	1.365518e+00	1.365494e+00	1.363541e+00	1.363710e+00	1.363731e+00	1.367249e+00	1.367125e+00	1.364353e+00	1.363599e+00	1.362501e+00	1.365518e+00	1.367178e+00	1.364512e+00	1.361479e+00	1.359961e+00	1.357993e+00	1.360237e+00	1.361655e+00	1.357531e+00	1.353575e+00	1.350404e+00	1.347845e+00	1.345709e+00	1.345678e+00	1.343597e+00	1.338943e+00	1.335962e+00	1.332643e+00	1.329719e+00	1.326808e+00	1.322899e+00	1.320126e+00	1.318725e+00	1.316697e+00	1.314685e+00	1.312466e+00	1.309850e+00	1.307566e+00	1.300315e+00	1.297680e+00	1.300160e+00	1.299948e+00	1.300055e+00	1.299496e+00	1.298530e+00	1.297408e+00	1.296280e+00	1.292757e+00	1.290327e+00	1.291463e+00	1.292415e+00	1.292934e+00	1.293166e+00	1.293144e+00	1.292987e+00	1.292790e+00	1.292583e+00	1.292279e+00	1.291993e+00	1.291658e+00	1.291377e+00	1.291112e+00	1.290828e+00	1.290633e+00	1.290328e+00	1.290225e+00	1.290102e+00	1.290095e+00	1.290111e+00	1.290061e+00	1.292757e+00	1.292895e+00	1.290491e+00	1.288942e+00	1.287496e+00	1.286499e+00	1.285501e+00	1.284759e+00	1.283954e+00	1.283364e+00	1.282895e+00	1.282515e+00	1.282330e+00	1.284102e+00	1.285017e+00	1.282210e+00	1.279528e+00	1.277524e+00	1.275601e+00	1.274083e+00	1.272533e+00	1.271160e+00	1.269822e+00	1.268485e+00	1.267204e+00	1.265894e+00	1.264608e+00	1.263336e+00	1.262136e+00	1.260778e+00	1.259430e+00	1.258071e+00	1.256714e+00	1.255342e+00	1.253920e+00	1.252464e+00	1.250996e+00	1.249362e+00	1.247840e+00	1.245986e+00	1.244137e+00	1.242153e+00	1.239271e+00	1.234026e+00	1.232887e+00	1.234747e+00	1.235053e+00	1.235088e+00	1.234660e+00	1.234009e+00	1.233151e+00	1.232208e+00	1.231150e+00	1.229857e+00	1.228582e+00	1.226839e+00	1.225010e+00	1.223019e+00	1.217725e+00	1.211045e+00	1.212170e+00	1.216750e+00	1.218883e+00	1.220609e+00	1.221519e+00	1.222126e+00	1.222496e+00	1.222665e+00	1.222726e+00	1.222662e+00	1.222624e+00	1.222378e+00	1.221978e+00	1.221673e+00	1.220600e+00	1.217845e+00	1.217729e+00	1.220292e+00	1.221346e+00	1.222737e+00	1.223389e+00	1.224132e+00	1.224755e+00	1.225306e+00	1.225925e+00	1.226472e+00	1.227202e+00	1.227897e+00	1.228734e+00	1.229669e+00	1.230535e+00	1.234315e+00	1.236035e+00	1.233881e+00	1.232485e+00	1.231368e+00	1.230704e+00	1.230359e+00	1.230209e+00	1.230246e+00	1.230363e+00	1.230754e+00	1.231224e+00	1.231929e+00	1.233066e+00	1.234349e+00	1.235717e+00	1.242115e+00	1.248161e+00	1.244594e+00	1.238488e+00	1.234161e+00	1.231019e+00	1.228622e+00	1.226671e+00	1.224979e+00	1.223634e+00	1.222357e+00	1.221380e+00	1.220418e+00	1.219971e+00	1.219326e+00	1.219114e+00	1.221520e+00	1.223687e+00	1.220209e+00	1.215602e+00	1.211455e+00	1.208406e+00	1.202953e+00	1.204750e+00	1.213572e+00	1.160177e+00	8.528490e-01	6.497670e-01	6.212417e-01	6.124659e-01	6.112370e-01	6.073919e-01	6.137460e-01	6.381009e-01	6.577798e-01	6.544028e-01	6.518636e-01	6.495530e-01	6.470391e-01	6.439746e-01	6.416190e-01	6.406465e-01	6.396781e-01	6.361017e-01	6.295411e-01	6.238271e-01	6.256843e-01	6.873985e-01	7.600557e-01	7.779663e-01	7.740415e-01	7.708675e-01	7.673579e-01	7.642284e-01	7.613162e-01	7.586091e-01	7.564864e-01	7.522947e-01	7.424134e-01	7.436626e-01	8.165394e-01	9.409258e-01	1.046486e+00	1.095568e+00	1.127373e+00	1.124600e+00	1.057460e+00	9.520723e-01	9.043946e-01	9.001090e-01	8.894673e-01	8.695757e-01	8.789487e-01	9.673222e-01	1.076091e+00	1.120046e+00	1.146447e+00	1.163762e+00	1.175911e+00	1.185529e+00	1.193753e+00	1.200579e+00	1.202127e+00	1.191879e+00	1.190250e+00	1.211359e+00	1.232761e+00	1.249076e+00	1.262085e+00	1.272882e+00	1.282775e+00	1.292369e+00	1.300707e+00	1.311994e+00	1.327540e+00	1.334530e+00	1.331826e+00	1.333547e+00	1.335995e+00	1.339921e+00	1.344860e+00	1.349921e+00	1.355535e+00	1.372735e+00	1.380661e+00	1.373336e+00	1.369849e+00	1.367314e+00	1.367144e+00	1.368075e+00	1.369275e+00	1.375997e+00	1.381111e+00	1.377587e+00	1.374438e+00	1.372229e+00	1.371182e+00	1.370551e+00	1.370078e+00	1.369737e+00	1.370070e+00	1.370489e+00	1.370576e+00	1.370911e+00	1.369470e+00	1.363517e+00	1.364955e+00	1.371481e+00	1.375298e+00	1.378589e+00	1.375845e+00	1.375594e+00	1.382943e+00	1.389682e+00	1.394914e+00	1.392067e+00	1.395725e+00	1.406989e+00	1.413237e+00	1.412701e+00	1.418266e+00	1.431518e+00	1.430309e+00	1.437609e+00	1.452544e+00	1.454017e+00	1.474074e+00	1.485760e+00	1.509025e+00	1.536111e+00	1.562175e+00	1.603927e+00	1.611530e+00	1.681095e+00	
VECTORS Momentum double
3.329608e+01	2.108055e+02	0.0	1.639663e+02	2.001487e+02	0.0	2.075516e+02	1.950649e+02	0.0	2.423560e+02	1.617421e+02	0.0	2.622106e+02	1.487347e+02	0.0	2.710611e+02	1.234912e+02	0.0	2.724441e+02	1.150136e+02	0.0	2.724108e+02	1.062828e+02	0.0	2.708097e+02	1.000793e+02	0.0	2.680514e+02	9.913836e+01	0.0	2.668663e+02	9.839899e+01	0.0	2.650268e+02	9.759271e+01	0.0	2.632460e+02	9.919395e+01	0.0	2.639307e+02	1.021446e+02	0.0	2.633761e+02	1.019500e+02	0.0	2.620642e+02	1.060283e+02	0.0	2.635000e+02	1.118656e+02	0.0	2.660503e+02	1.130834e+02	0.0	2.680197e+02	1.163590e+02	0.0	2.711579e+02	1.212887e+02	0.0	2.761016e+02	1.244194e+02	0.0	2.831615e+02	1.241553e+02	0.0	2.882808e+02	1.178655e+02	0.0	2.906458e+02	1.136394e+02	0.0	2.954752e+02	1.163642e+02	0.0	2.988100e+02	1.074623e+02	0.0	2.973214e+02	8.832704e+01	0.0	2.970348e+02	8.081555e+01	0.0	2.994634e+02	8.225173e+01	0.0	3.013714e+02	8.267368e+01	0.0	2.948937e+02	6.248118e+01	0.0	2.826106e+02	4.298240e+01	0.0	2.829952e+02	4.162520e+01	0.0	2.841642e+02	4.232206e+01	0.0	2.876477e+02	4.347159e+01	0.0	2.840797e+02	3.718667e+01	0.0	2.762285e+02	2.665162e+01	0.0	2.706431e+02	1.946083e+01	0.0	2.714029e+02	1.923563e+01	0.0	2.735649e+02	2.018381e+01	0.0	2.751073e+02	2.055280e+01	0.0	2.761428e+02	2.076549e+01	0.0	2.744944e+02	1.808451e+01	0.0	2.707866e+02	1.381685e+01	0.0	2.706785e+02	1.257718e+01	0.0	2.719879e+02	1.269802e+01	0.0	2.733182e+02	1.315546e+01	0.0	2.739821e+02	1.322670e+01	0.0	2.746431e+02	1.321676e+01	0.0	2.753195e+02	1.318358e+01	0.0	2.766668e+02	1.403486e+01	0.0	2.785664e+02	1.517211e+01	0.0	2.793953e+02	1.542883e+01	0.0	2.799211e+02	1.536894e+01	0.0	2.804547e+02	1.533474e+01	0.0	2.809757e+02	1.533482e+01	0.0	2.815797e+02	1.537067e+01	0.0	2.821306e+02	1.537184e+01	0.0	2.824583e+02	1.534508e+01	0.0	2.847871e+02	1.729611e+01	0.0	2.876477e+02	1.998061e+01	0.0	2.884665e+02	2.058077e+01	0.0	2.885952e+02	2.033191e+01	0.0	2.888289e+02	2.022677e+01	0.0	2.892449e+02	2.024805e+01	0.0	2.896918e+02	2.029278e+01	0.0	2.901485e+02	2.033191e+01	0.0	2.905174e+02	2.036642e+01	0.0	2.910086e+02	2.041449e+01	0.0	2.912106e+02	2.024038e+01	0.0	2.915538e+02	1.998236e+01	0.0	2.919268e+02	1.991943e+01	0.0	2.923154e+02	1.996111e+01	0.0	2.927303e+02	2.001094e+01	0.0	2.930099e+02	2.002934e+01	0.0	2.933700e+02	2.005005e+01	0.0	2.937565e+02	2.007482e+01	0.0	2.942294e+02	2.011393e+01	0.0	2.944380e+02	2.012214e+01	0.0	2.951374e+02	2.039356e+01	0.0	2.942685e+02	1.901460e+01	0.0	2.923061e+02	1.602921e+01	0.0	2.913122e+02	1.428223e+01	0.0	2.920358e+02	1.437356e+01	0.0	2.925356e+02	1.454114e+01	0.0	2.927012e+02	1.455890e+01	0.0	2.929511e+02	1.452884e+01	0.0	2.931833e+02	1.453229e+01	0.0	2.935579e+02	1.454829e+01	0.0	2.938447e+02	1.455166e+01	0.0	2.941833e+02	1.459697e+01	0.0	2.944802e+02	1.474055e+01	0.0	2.940007e+02	1.379381e+01	0.0	2.900589e+02	8.903472e+00	0.0	2.870344e+02	5.137108e+00	0.0	2.877364e+02	5.121268e+00	0.0	2.883941e+02	5.259745e+00	0.0	2.887971e+02	5.561726e+00	0.0	2.888350e+02	5.561375e+00	0.0	2.890373e+02	5.546602e+00	0.0	2.892946e+02	5.540403e+00	0.0	2.894576e+02	5.546528e+00	0.0	2.896979e+02	5.547667e+00	0.0	2.898993e+02	5.532353e+00	0.0	2.902139e+02	5.589808e+00	0.0	2.906261e+02	5.567317e+00	0.0	2.882240e+02	2.817570e+00	0.0	2.846607e+02	-1.051339e+00	0.0	2.847412e+02	-1.499490e+00	0.0	2.854616e+02	-1.078138e+00	0.0	2.859500e+02	-9.726133e-01	0.0	2.861786e+02	-9.880358e-01	0.0	2.863032e+02	-1.017438e+00	0.0	2.864987e+02	-1.039028e+00	0.0	2.868167e+02	-1.037683e+00	0.0	2.870761e+02	-1.026288e+00	0.0	2.872695e+02	-1.021140e+00	0.0	2.874264e+02	-1.022960e+00	0.0	2.875425e+02	-1.014045e+00	0.0	2.877427e+02	-9.805759e-01	0.0	2.871339e+02	-1.775250e+00	0.0	2.857625e+02	-3.353189e+00	0.0	2.852830e+02	-4.115215e+00	0.0	2.856892e+02	-4.107242e+00	0.0	2.860080e+02	-4.006358e+00	0.0	2.862071e+02	-3.958323e+00	0.0	2.864115e+02	-3.962410e+00	0.0	2.866196e+02	-3.972306e+00	0.0	2.868375e+02	-3.973955e+00	0.0	2.869604e+02	-3.977230e+00	0.0	2.870920e+02	-3.980121e+00	0.0	2.873021e+02	-3.983346e+00	0.0	2.874324e+02	-3.985868e+00	0.0	2.876109e+02	-3.987855e+00	0.0	2.877686e+02	-3.992739e+00	0.0	2.879411e+02	-3.965501e+00	0.0	2.881611e+02	-3.904322e+00	0.0	2.883992e+02	-3.875243e+00	0.0	2.885594e+02	-3.879012e+00	0.0	2.887159e+02	-3.881566e+00	0.0	2.888963e+02	-3.883970e+00	0.0	2.890551e+02	-3.887024e+00	0.0	2.892287e+02	-3.888179e+00	0.0	2.893873e+02	-3.890580e+00	0.0	2.895856e+02	-3.892545e+00	0.0	2.897688e+02	-3.895404e+00	0.0	2.899833e+02	-3.897042e+00	0.0	2.901293e+02	-3.901367e+00	0.0	2.903305e+02	-3.905514e+00	0.0	2.904873e+02	-3.899724e+00	0.0	2.907745e+02	-3.849874e+00	0.0	2.902151e+02	-4.656684e+00	0.0	2.890574e+02	-6.023018e+00	0.0	2.888496e+02	-6.510926e+00	0.0	2.890540e+02	-6.502336e+00	0.0	2.893291e+02	-6.469041e+00	0.0	2.894970e+02	-6.450778e+00	0.0	2.897137e+02	-6.461299e+00	0.0	2.898816e+02	-6.467991e+00	0.0	2.900337e+02	-6.469742e+00	0.0	2.901307e+02	-6.472857e+00	0.0	2.903153e+02	-6.478055e+00	0.0	2.904494e+02	-6.481360e+00	0.0	2.906217e+02	-6.487086e+00	0.0	2.907879e+02	-6.497640e+00	0.0	2.908893e+02	-6.466661e+00	0.0	2.912802e+02	-6.287704e+00	0.0	2.893878e+02	-8.506307e+00	0.0	2.835608e+02	-1.387421e+01	0.0	2.802865e+02	-1.732110e+01	0.0	2.810239e+02	-1.747166e+01	0.0	2.820571e+02	-1.677832e+01	0.0	2.821043e+02	-1.662284e+01	0.0	2.821161e+02	-1.662665e+01	0.0	2.822034e+02	-1.666083e+01	0.0	2.823590e+02	-1.668142e+01	0.0	2.825633e+02	-1.668966e+01	0.0	2.827098e+02	-1.669749e+01	0.0	2.827996e+02	-1.670417e+01	0.0	2.829898e+02	-1.671112e+01	0.0	2.831038e+02	-1.672319e+01	0.0	2.834232e+02	-1.671871e+01	0.0	2.833598e+02	-1.664267e+01	0.0	2.833974e+02	-1.688243e+01	0.0	2.737839e+02	-2.480304e+01	0.0	2.626589e+02	-3.284603e+01	0.0	2.614918e+02	-3.331740e+01	0.0	2.622598e+02	-3.287594e+01	0.0	2.633941e+02	-3.285251e+01	0.0	2.637672e+02	-3.281642e+01	0.0	2.636820e+02	-3.284708e+01	0.0	2.636182e+02	-3.290503e+01	0.0	2.637858e+02	-3.293587e+01	0.0	2.640333e+02	-3.295184e+01	0.0	2.640979e+02	-3.295029e+01	0.0	2.641754e+02	-3.296411e+01	0.0	2.643250e+02	-3.297707e+01	0.0	2.643837e+02	-3.303816e+01	0.0	2.648077e+02	-3.299992e+01	0.0	2.659897e+02	-3.261938e+01	0.0	2.569174e+02	-3.826637e+01	0.0	2.411352e+02	-4.671859e+01	0.0	2.381402e+02	-4.822449e+01	0.0	2.383126e+02	-4.824440e+01	0.0	2.362397e+02	-4.768173e+01	0.0	2.252546e+02	-4.303311e+01	0.0	2.198977e+02	-4.338151e+01	0.0	2.174254e+02	-4.308959e+01	0.0	2.144791e+02	-4.267558e+01	0.0	2.117324e+02	-4.212081e+01	0.0	2.095866e+02	-4.172250e+01	0.0	2.077167e+02	-4.137470e+01	0.0	2.062583e+02	-4.105508e+01	0.0	2.048837e+02	-4.077143e+01	0.0	2.034379e+02	-4.050018e+01	0.0	2.028156e+02	-4.033864e+01	0.0	2.014945e+02	-4.168253e+01	0.0	1.987624e+02	-4.319099e+01	0.0	1.960866e+02	-4.304779e+01	0.0	1.941056e+02	-4.256919e+01	0.0	1.919147e+02	-4.209136e+01	0.0	1.898784e+02	-4.164548e+01	0.0	1.878316e+02	-4.120311e+01	0.0	1.860835e+02	-4.082955e+01	0.0	1.843235e+02	-4.043132e+01	0.0	1.821540e+02	-3.993184e+01	0.0	1.798300e+02	-3.944333e+01	0.0	1.777375e+02	-3.900170e+01	0.0	1.754136e+02	-3.848052e+01	0.0	1.729796e+02	-3.790555e+01	0.0	1.696433e+02	-3.717935e+01	0.0	1.660876e+02	-3.499888e+01	0.0	1.652045e+02	-3.077830e+01	0.0	1.663956e+02	-2.852074e+01	0.0	1.665114e+02	-2.862202e+01	0.0	1.660221e+02	-2.851394e+01	0.0	1.652679e+02	-2.840394e+01	0.0	1.644372e+02	-2.823448e+01	0.0	1.632248e+02	-2.801526e+01	0.0	1.617323e+02	-2.776255e+01	0.0	1.597500e+02	-2.743634e+01	0.0	1.578884e+02	-2.711434e+01	0.0	1.559931e+02	-2.677973e+01	0.0	1.533737e+02	-2.632133e+01	0.0	1.499718e+02	-2.567192e+01	0.0	1.440592e+02	-2.485095e+01	0.0	1.414072e+02	-1.654257e+01	0.0	1.465032e+02	-8.645984e+00	0.0	1.512408e+02	-8.953066e+00	0.0	1.533422e+02	-9.093749e+00	0.0	1.552414e+02	-9.225101e+00	0.0	1.567358e+02	-9.325510e+00	0.0	1.578156e+02	-9.377965e+00	0.0	1.583975e+02	-9.403336e+00	0.0	1.588654e+02	-9.460467e+00	0.0	1.590043e+02	-9.441841e+00	0.0	1.583570e+02	-9.385232e+00	0.0	1.569252e+02	-9.274238e+00	0.0	1.529506e+02	-9.209996e+00	0.0	1.508355e+02	-3.224152e+00	0.0	1.552950e+02	4.354327e+00	0.0	1.609407e+02	6.111460e+00	0.0	1.652489e+02	6.334983e+00	0.0	1.687164e+02	6.431731e+00	0.0	1.718648e+02	6.564818e+00	0.0	1.747054e+02	6.674266e+00	0.0	1.773358e+02	6.784971e+00	0.0	1.795912e+02	6.894075e+00	0.0	1.816707e+02	6.991499e+00	0.0	1.834030e+02	7.036860e+00	0.0	1.844466e+02	7.031816e+00	0.0	1.857779e+02	9.284933e+00	0.0	1.890992e+02	1.229870e+01	0.0	1.934391e+02	1.322437e+01	0.0	1.972960e+02	1.344413e+01	0.0	2.008667e+02	1.366379e+01	0.0	2.045547e+02	1.392330e+01	0.0	2.080159e+02	1.416634e+01	0.0	2.117537e+02	1.442602e+01	0.0	2.156157e+02	1.466341e+01	0.0	2.202280e+02	1.497275e+01	0.0	2.263696e+02	1.509799e+01	0.0	2.310015e+02	9.660082e+00	0.0	2.309480e+02	4.018434e+00	0.0	2.313606e+02	4.055372e+00	0.0	2.330898e+02	4.215469e+00	0.0	2.349614e+02	4.212955e+00	0.0	2.376510e+02	4.228072e+00	0.0	2.409624e+02	4.277034e+00	0.0	2.448802e+02	4.408284e+00	0.0	2.527359e+02	4.989812e+00	0.0	2.582849e+02	-5.719314e+00	0.0	2.543823e+02	-2.017679e+01	0.0	2.497330e+02	-2.244274e+01	0.0	2.477376e+02	-2.224704e+01	0.0	2.466730e+02	-2.226821e+01	0.0	2.466871e+02	-2.229594e+01	0.0	2.476631e+02	-2.240124e+01	0.0	2.522736e+02	-2.259874e+01	0.0	2.539526e+02	-3.118083e+01	0.0	2.476251e+02	-4.159158e+01	0.0	2.419864e+02	-4.290745e+01	0.0	2.384577e+02	-4.208234e+01	0.0	2.361046e+02	-4.172285e+01	0.0	2.342328e+02	-4.141590e+01	0.0	2.334947e+02	-4.117515e+01	0.0	2.323293e+02	-4.379114e+01	0.0	2.281700e+02	-4.759880e+01	0.0	2.230951e+02	-4.826597e+01	0.0	2.191780e+02	-4.742751e+01	0.0	2.159832e+02	-4.675456e+01	0.0	2.127570e+02	-4.612028e+01	0.0	2.099785e+02	-4.543889e+01	0.0	2.076676e+02	-4.385559e+01	0.0	2.060292e+02	-4.246427e+01	0.0	2.041095e+02	-4.212585e+01	0.0	2.019071e+02	-4.166130e+01	0.0	1.998266e+02	-4.123531e+01	0.0	1.973671e+02	-4.071844e+01	0.0	1.954142e+02	-3.868026e+01	0.0	1.954486e+02	-3.685294e+01	0.0	1.946832e+02	-3.660522e+01	0.0	1.930929e+02	-3.636883e+01	0.0	1.917365e+02	-3.610874e+01	0.0	1.901066e+02	-3.554433e+01	0.0	1.885695e+02	-3.432976e+01	0.0	1.883357e+02	-3.360906e+01	0.0	1.874348e+02	-3.349533e+01	0.0	1.860969e+02	-3.321216e+01	0.0	1.850579e+02	-3.306295e+01	0.0	1.840763e+02	-3.283355e+01	0.0	1.830073e+02	-3.250585e+01	0.0	1.818383e+02	-3.235507e+01	0.0	1.810218e+02	-3.220500e+01	0.0	1.801374e+02	-3.231525e+01	0.0	1.784194e+02	-3.246723e+01	0.0	1.767981e+02	-3.226230e+01	0.0	1.752455e+02	-3.196678e+01	0.0	1.736565e+02	-3.208040e+01	0.0	1.712059e+02	-3.204143e+01	0.0	1.688300e+02	-3.156555e+01	0.0	1.665110e+02	-3.145418e+01	0.0	1.634827e+02	-3.129386e+01	0.0	1.606815e+02	-3.089013e+01	0.0	1.570439e+02	-3.045684e+01	0.0	1.532742e+02	-3.003421e+01	0.0	1.480103e+02	-2.941734e+01	0.0	1.443815e+02	-2.866449e+01	0.0	1.331303e+02	-2.833800e+01	0.0	1.500250e+02	-6.947923e+00	0.0	2.136948e+02	-1.255300e+01	0.0	2.006578e+02	-6.390511e+00	0.0	2.005517e+02	-4.789622e+00	0.0	1.993001e+02	-3.410961e+00	0.0	1.9