# vtk DataFile Version 3.0
vtk output
ASCII
DATASET UNSTRUCTURED_GRID
POINTS 1849 double
1.000000e+02	0.000000e+00	0.0	9.917900e+01	1.278772e+01	0.0	9.672949e+01	2.536546e+01	0.0	9.269168e+01	3.752670e+01	0.0	8.713187e+01	4.907176e+01	0.0	8.014136e+01	5.981105e+01	0.0	7.183494e+01	6.956826e+01	0.0	6.234898e+01	7.818315e+01	0.0	5.183926e+01	8.551428e+01	0.0	4.047833e+01	9.144126e+01	0.0	2.845276e+01	9.586679e+01	0.0	1.595999e+01	9.871818e+01	0.0	3.205158e+00	9.994862e+01	0.0	-9.602303e+00	9.953791e+01	0.0	-2.225209e+01	9.749279e+01	0.0	-3.453651e+01	9.384684e+01	0.0	-4.625383e+01	8.865993e+01	0.0	-5.721167e+01	8.201723e+01	0.0	-6.723009e+01	7.402780e+01	0.0	-7.614460e+01	6.482284e+01	0.0	-8.380881e+01	5.455349e+01	0.0	-9.009689e+01	4.338837e+01	0.0	-9.490557e+01	3.151082e+01	0.0	-9.815592e+01	1.911586e+01	0.0	-9.979454e+01	6.407022e+00	0.0	-9.979454e+01	-6.407022e+00	0.0	-9.815592e+01	-1.911586e+01	0.0	-9.490557e+01	-3.151082e+01	0.0	-9.009689e+01	-4.338837e+01	0.0	-8.380881e+01	-5.455349e+01	0.0	-7.614460e+01	-6.482284e+01	0.0	-6.723009e+01	-7.402780e+01	0.0	-5.721167e+01	-8.201723e+01	0.0	-4.625383e+01	-8.865993e+01	0.0	-3.453651e+01	-9.384684e+01	0.0	-2.225209e+01	-9.749279e+01	0.0	-9.602303e+00	-9.953791e+01	0.0	3.205158e+00	-9.994862e+01	0.0	1.595999e+01	-9.871818e+01	0.0	2.845276e+01	-9.586679e+01	0.0	4.047833e+01	-9.144126e+01	0.0	5.183926e+01	-8.551428e+01	0.0	6.234898e+01	-7.818315e+01	0.0	7.183494e+01	-6.956826e+01	0.0	8.014136e+01	-5.981105e+01	0.0	8.713187e+01	-4.907176e+01	0.0	9.269168e+01	-3.752670e+01	0.0	9.672949e+01	-2.536546e+01	0.0	9.917900e+01	-1.278772e+01	0.0	0.000000e+00	0.000000e+00	0.0	3.390596e-03	3.674759e-03	0.0	7.041386e-03	7.332579e-03	0.0	1.147775e-02	1.037376e-02	0.0	1.615948e-02	1.338483e-02	0.0	2.133067e-02	1.596015e-02	0.0	2.673188e-02	1.852477e-02	0.0	3.250973e-02	2.075785e-02	0.0	3.852205e-02	2.297336e-02	0.0	4.484584e-02	2.496484e-02	0.0	5.141055e-02	2.693213e-02	0.0	5.823850e-02	2.881390e-02	0.0	6.530185e-02	3.071440e-02	0.0	7.260065e-02	3.264723e-02	0.0	8.011107e-02	3.471323e-02	0.0	8.784349e-02	3.688380e-02	0.0	9.578097e-02	3.922756e-02	0.0	1.039343e-01	4.171068e-02	0.0	1.123016e-01	4.434573e-02	0.0	1.208917e-01	4.710629e-02	0.0	1.297041e-01	4.999761e-02	0.0	1.387656e-01	5.293806e-02	0.0	1.481036e-01	5.584217e-02	0.0	1.576821e-01	5.882107e-02	0.0	1.675914e-01	6.155557e-02	0.0	1.777778e-01	6.422798e-02	0.0	1.882264e-01	6.685970e-02	0.0	1.990595e-01	6.889299e-02	0.0	2.101292e-01	7.097068e-02	0.0	2.215107e-01	7.253935e-02	0.0	2.331842e-01	7.370140e-02	0.0	2.450838e-01	7.486924e-02	0.0	2.572599e-01	7.504799e-02	0.0	2.696489e-01	7.522987e-02	0.0	2.822300e-01	7.490588e-02	0.0	2.949941e-01	7.404808e-02	0.0	3.079458e-01	7.317767e-02	0.0	3.209797e-01	7.137102e-02	0.0	3.341774e-01	6.951502e-02	0.0	3.475004e-01	6.744446e-02	0.0	3.609293e-01	6.510899e-02	0.0	3.744899e-01	6.275063e-02	0.0	3.881975e-01	6.053722e-02	0.0	4.020143e-01	5.832252e-02	0.0	4.159648e-01	5.639883e-02	0.0	4.300572e-01	5.493414e-02	0.0	4.442157e-01	5.346259e-02	0.0	4.584824e-01	5.275059e-02	0.0	4.727925e-01	5.212101e-02	0.0	4.871301e-01	5.165778e-02	0.0	5.014821e-01	5.142558e-02	0.0	5.158266e-01	5.119350e-02	0.0	5.301474e-01	5.089359e-02	0.0	5.444309e-01	5.059010e-02	0.0	5.586550e-01	5.008551e-02	0.0	5.728038e-01	4.934258e-02	0.0	5.868721e-01	4.860386e-02	0.0	6.008102e-01	4.736723e-02	0.0	6.146393e-01	4.612033e-02	0.0	6.283202e-01	4.463498e-02	0.0	6.418349e-01	4.286223e-02	0.0	6.552052e-01	4.110843e-02	0.0	6.683423e-01	3.886918e-02	0.0	6.813067e-01	3.661203e-02	0.0	6.940788e-01	3.429599e-02	0.0	7.066354e-01	3.184893e-02	0.0	7.189986e-01	2.943957e-02	0.0	7.311934e-01	2.724901e-02	0.0	7.431878e-01	2.514572e-02	0.0	7.549954e-01	2.329324e-02	0.0	7.666610e-01	2.205358e-02	0.0	7.780962e-01	2.083840e-02	0.0	7.893506e-01	2.060140e-02	0.0	8.003726e-01	2.050993e-02	0.0	8.111433e-01	2.077941e-02	0.0	8.216625e-01	2.128016e-02	0.0	8.319344e-01	2.172751e-02	0.0	8.419586e-01	2.209675e-02	0.0	8.517311e-01	2.235967e-02	0.0	8.612513e-01	2.200350e-02	0.0	8.705194e-01	2.165675e-02	0.0	8.794997e-01	2.081996e-02	0.0	8.882207e-01	1.987234e-02	0.0	8.966778e-01	1.882661e-02	0.0	9.048567e-01	1.756053e-02	0.0	9.127936e-01	1.633191e-02	0.0	9.204698e-01	1.500991e-02	0.0	9.279059e-01	1.370103e-02	0.0	9.351072e-01	1.241841e-02	0.0	9.420753e-01	1.115068e-02	0.0	9.488188e-01	9.923398e-03	0.0	9.553362e-01	8.707199e-03	0.0	9.616374e-01	7.531356e-03	0.0	9.677228e-01	6.374407e-03	0.0	9.736001e-01	5.253220e-03	0.0	9.792713e-01	4.152634e-03	0.0	9.847432e-01	3.083350e-03	0.0	9.900195e-01	2.038822e-03	0.0	9.951041e-01	1.014213e-03	0.0	1.000000e+00	0.000000e+00	0.0	9.950044e-01	2.071935e-04	0.0	9.898189e-01	4.081029e-04	0.0	9.844372e-01	5.585446e-04	0.0	9.788549e-01	6.630296e-04	0.0	9.730675e-01	7.422364e-04	0.0	9.670700e-01	7.617812e-04	0.0	9.608581e-01	7.576825e-04	0.0	9.544273e-01	6.877289e-04	0.0	9.477729e-01	6.004928e-04	0.0	9.408919e-01	4.184685e-04	0.0	9.337785e-01	2.302946e-04	0.0	9.264319e-01	-6.333383e-05	0.0	9.188459e-01	-3.869459e-04	0.0	9.110176e-01	-7.508736e-04	0.0	9.029446e-01	-1.172095e-03	0.0	8.946218e-01	-1.606344e-03	0.0	8.860465e-01	-2.045631e-03	0.0	8.772167e-01	-2.497212e-03	0.0	8.681289e-01	-2.918106e-03	0.0	8.587814e-01	-3.301671e-03	0.0	8.491753e-01	-3.682597e-03	0.0	8.393076e-01	-3.982800e-03	0.0	8.291818e-01	-4.290857e-03	0.0	8.188023e-01	-4.707222e-03	0.0	8.081676e-01	-5.146222e-03	0.0	7.972930e-01	-5.832891e-03	0.0	7.861745e-01	-6.647618e-03	0.0	7.748298e-01	-7.695260e-03	0.0	7.632723e-01	-9.070528e-03	0.0	7.514807e-01	-1.049185e-02	0.0	7.395413e-01	-1.251865e-02	0.0	7.273787e-01	-1.458336e-02	0.0	7.150688e-01	-1.703562e-02	0.0	7.026117e-01	-1.983478e-02	0.0	6.899563e-01	-2.267847e-02	0.0	6.772933e-01	-2.627664e-02	0.0	6.644579e-01	-2.994376e-02	0.0	6.515194e-01	-3.386478e-02	0.0	6.385335e-01	-3.818170e-02	0.0	6.254048e-01	-4.254608e-02	0.0	6.121399e-01	-4.693825e-02	0.0	5.987546e-01	-5.136461e-02	0.0	5.852327e-01	-5.572534e-02	0.0	5.714541e-01	-5.957915e-02	0.0	5.575953e-01	-6.345540e-02	0.0	5.434990e-01	-6.661889e-02	0.0	5.292409e-01	-6.932728e-02	0.0	5.149248e-01	-7.190973e-02	0.0	5.004410e-01	-7.353555e-02	0.0	4.859496e-01	-7.516224e-02	0.0	4.714243e-01	-7.631362e-02	0.0	4.569013e-01	-7.722519e-02	0.0	4.424131e-01	-7.806328e-02	0.0	4.279656e-01	-7.864916e-02	0.0	4.135867e-01	-7.923227e-02	0.0	3.992888e-01	-7.975294e-02	0.0	3.850879e-01	-8.025339e-02	0.0	3.709986e-01	-8.075370e-02	0.0	3.570345e-01	-8.125716e-02	0.0	3.432084e-01	-8.175564e-02	0.0	3.295358e-01	-8.232999e-02	0.0	3.160257e-01	-8.290836e-02	0.0	3.026911e-01	-8.352391e-02	0.0	2.895432e-01	-8.419146e-02	0.0	2.765889e-01	-8.484917e-02	0.0	2.638328e-01	-8.539343e-02	0.0	2.512879e-01	-8.592391e-02	0.0	2.389574e-01	-8.626283e-02	0.0	2.268480e-01	-8.640220e-02	0.0	2.149715e-01	-8.653324e-02	0.0	2.033440e-01	-8.601510e-02	0.0	1.919595e-01	-8.550779e-02	0.0	1.808606e-01	-8.455265e-02	0.0	1.700447e-01	-8.322238e-02	0.0	1.594894e-01	-8.187151e-02	0.0	1.493520e-01	-7.960416e-02	0.0	1.394657e-01	-7.739298e-02	0.0	1.300075e-01	-7.462554e-02	0.0	1.209422e-01	-7.142478e-02	0.0	1.121207e-01	-6.831005e-02	0.0	1.039560e-01	-6.429949e-02	0.0	9.602879e-02	-6.038429e-02	0.0	8.843545e-02	-5.638736e-02	0.0	8.126554e-02	-5.213896e-02	0.0	7.431075e-02	-4.801803e-02	0.0	6.763883e-02	-4.390787e-02	0.0	6.120592e-02	-3.987423e-02	0.0	5.495601e-02	-3.600262e-02	0.0	4.879847e-02	-3.243596e-02	0.0	4.284216e-02	-2.898586e-02	0.0	3.695604e-02	-2.588141e-02	0.0	3.125716e-02	-2.290088e-02	0.0	2.575561e-02	-2.001607e-02	0.0	2.049753e-02	-1.713713e-02	0.0	1.557902e-02	-1.408607e-02	0.0	1.103820e-02	-1.085034e-02	0.0	6.801029e-03	-7.530179e-03	0.0	3.067563e-03	-3.925957e-03	0.0	2.232001e-01	1.151469e-01	0.0	2.393066e-01	1.258005e-01	0.0	2.240600e-01	1.399027e-01	0.0	8.645228e+01	2.665672e+01	0.0	8.251043e+01	2.051856e+01	0.0	8.872172e+01	1.724255e+01	0.0	7.565680e+01	-1.262762e+01	0.0	7.571932e+01	-2.491424e+01	0.0	8.703599e+01	-1.790564e+01	0.0	8.626313e+01	-5.039966e+00	0.0	2.752361e+01	2.492761e+01	0.0	3.786038e+01	2.788288e+01	0.0	3.054578e+01	3.548658e+01	0.0	8.183176e+01	3.565647e+01	0.0	7.279227e+01	3.393425e+01	0.0	7.616462e+01	2.498907e+01	0.0	6.913606e+01	-3.534088e+01	0.0	7.633749e+01	-4.304927e+01	0.0	8.155650e+01	-3.603267e+01	0.0	8.707203e+01	-2.807627e+01	0.0	4.838307e+01	3.069625e+01	0.0	5.728915e+01	3.256257e+01	0.0	5.326116e+01	4.055012e+01	0.0	6.403348e+01	-5.202109e+01	0.0	6.102397e+01	-5.958554e+01	0.0	6.897330e+01	-5.999789e+01	0.0	6.889021e+01	5.940502e+01	0.0	7.281156e+01	5.047560e+01	0.0	6.002184e+01	6.495759e+01	0.0	4.808893e+01	-6.431495e+01	0.0	4.562570e+01	-7.396961e+01	0.0	5.433490e+01	-7.216516e+01	0.0	6.847859e+01	-4.458921e+01	0.0	4.877452e+01	7.183294e+01	0.0	3.078043e+01	6.308540e+01	0.0	2.652408e+01	5.328716e+01	0.0	3.679700e+01	5.526181e+01	0.0	5.384939e+01	-5.446333e+01	0.0	5.585138e+01	-6.367848e+01	0.0	2.420365e+01	8.139808e+01	0.0	2.418340e+01	7.247598e+01	0.0	3.116513e+01	7.859601e+01	0.0	3.678913e+01	-6.715233e+01	0.0	2.459819e+01	-7.463517e+01	0.0	3.825207e+01	-7.988914e+01	0.0	-4.087021e+00	4.766338e+01	0.0	5.414132e+00	4.891429e+01	0.0	-1.310143e+00	5.645428e+01	0.0	2.057343e+01	8.910236e+01	0.0	1.356853e+01	8.042053e+01	0.0	-7.111566e-01	3.676666e+01	0.0	1.255307e+01	4.051710e+01	0.0	1.248185e+00	-1.214058e+00	0.0	1.502891e+00	-1.799166e+00	0.0	1.889648e+00	-1.340278e+00	0.0	2.304110e+00	2.073088e+00	0.0	2.812394e+00	1.228150e+00	0.0	3.277986e+00	2.041745e+00	0.0	1.300743e+00	7.180662e-01	0.0	1.110214e+00	5.409992e-01	0.0	1.326487e+00	4.789082e-01	0.0	1.323106e+00	-5.518322e-02	0.0	1.229107e+00	-4.229653e-02	0.0	1.266138e+00	-1.397766e-01	0.0	1.276051e+00	5.285357e-02	0.0	1.429372e+00	2.170636e-02	0.0	1.387201e+00	1.778043e-01	0.0	1.106138e+00	-6.447656e-02	0.0	1.101236e+00	-1.223750e-02	0.0	1.070167e+00	-3.199886e-02	0.0	1.012635e+00	1.536668e-02	0.0	1.005800e+00	1.266399e-02	0.0	1.010479e+00	8.865765e-03	0.0	1.000499e+00	9.628251e-03	0.0	9.965436e-01	7.313701e-03	0.0	9.996770e-01	4.332079e-03	0.0	9.947370e-01	4.375764e-03	0.0	9.923410e-01	7.180007e-0
[...]
POINT_DATA 1849

SCALARS Density double 1
LOOKUP_TABLE default
1.291307e+00	1.291419e+00	1.292000e+00	1.292241e+00	1.292146e+00	1.292084e+00	1.292071e+00	1.292035e+00	1.291991e+00	1.291954e+00	1.291930e+00	1.291921e+00	1.291937e+00	1.291980e+00	1.292047e+00	1.292111e+00	1.292171e+00	1.292214e+00	1.292247e+00	1.292270e+00	1.292286e+00	1.292299e+00	1.292307e+00	1.292316e+00	1.292323e+00	1.292330e+00	1.292339e+00	1.292349e+00	1.292363e+00	1.292380e+00	1.292402e+00	1.292431e+00	1.292467e+00	1.292511e+00	1.292563e+00	1.292619e+00	1.292675e+00	1.292713e+00	1.292715e+00	1.292689e+00	1.292644e+00	1.292584e+00	1.292526e+00	1.292470e+00	1.292410e+00	1.292362e+00	1.292400e+00	1.292318e+00	1.291831e+00	1.538104e+00	1.156856e+00	1.209450e+00	1.161351e+00	1.139252e+00	1.119420e+00	1.115644e+00	1.111124e+00	1.123795e+00	1.138454e+00	1.160607e+00	1.181080e+00	1.200136e+00	1.217028e+00	1.228267e+00	1.230490e+00	1.230245e+00	1.222254e+00	1.212633e+00	1.196166e+00	1.172668e+00	1.141478e+00	1.114038e+00	1.076047e+00	1.036849e+00	1.010482e+00	9.493538e-01	9.029467e-01	8.663815e-01	8.081815e-01	7.878363e-01	7.355298e-01	6.855075e-01	6.634963e-01	6.212449e-01	5.991995e-01	5.641637e-01	5.288811e-01	5.197502e-01	5.083704e-01	5.001001e-01	5.135293e-01	5.216611e-01	5.442964e-01	5.834575e-01	7.063854e-01	1.033218e+00	1.217562e+00	1.193962e+00	1.179536e+00	1.169653e+00	1.156652e+00	1.148235e+00	1.138485e+00	1.128188e+00	1.128476e+00	1.121755e+00	1.122867e+00	1.132811e+00	1.132872e+00	1.145652e+00	1.152881e+00	1.165163e+00	1.188782e+00	1.202246e+00	1.219200e+00	1.240232e+00	1.254108e+00	1.265624e+00	1.283785e+00	1.285161e+00	1.291389e+00	1.290978e+00	1.272371e+00	1.262822e+00	1.240667e+00	1.216743e+00	1.198187e+00	1.170256e+00	1.162729e+00	1.164972e+00	1.163603e+00	1.180014e+00	1.185316e+00	1.197772e+00	1.211110e+00	1.219096e+00	1.230945e+00	1.238423e+00	1.245619e+00	1.251992e+00	1.258341e+00	1.264848e+00	1.271135e+00	1.278052e+00	1.285190e+00	1.294270e+00	1.308283e+00	1.313937e+00	1.333498e+00	1.428324e+00	1.384151e+00	1.394886e+00	1.393629e+00	1.395275e+00	1.395719e+00	1.395869e+00	1.397096e+00	1.396377e+00	1.396314e+00	1.396177e+00	1.392616e+00	1.391832e+00	1.389038e+00	1.385637e+00	1.383917e+00	1.381733e+00	1.380176e+00	1.381860e+00	1.382934e+00	1.386921e+00	1.396309e+00	1.402637e+00	1.411648e+00	1.418875e+00	1.423231e+00	1.430268e+00	1.428007e+00	1.434178e+00	1.433436e+00	1.428283e+00	1.431040e+00	1.419847e+00	1.421885e+00	1.415201e+00	1.397418e+00	1.390239e+00	1.370201e+00	1.343484e+00	1.318843e+00	1.287665e+00	1.241679e+00	1.207598e+00	1.157264e+00	1.103184e+00	1.057166e+00	9.965026e-01	9.935261e-01	1.016740e+00	1.033589e+00	1.066935e+00	1.087461e+00	1.109651e+00	1.130984e+00	1.144445e+00	1.156649e+00	1.164926e+00	1.170958e+00	1.177528e+00	1.180010e+00	1.179388e+00	1.178065e+00	1.170497e+00	1.166783e+00	1.159339e+00	1.116421e+00	9.540962e-01	8.355586e-01	8.067087e-01	8.259323e-01	8.503965e-01	8.583699e-01	8.860325e-01	8.932684e-01	9.402180e-01	9.948371e-01	1.029949e+00	1.097114e+00	1.114113e+00	1.175470e+00	1.257914e+00	1.288356e+00	1.339717e+00	1.384561e+00	1.415135e+00	1.449384e+00	1.479790e+00	1.498941e+00	1.516810e+00	1.531526e+00	1.538351e+00	1.548719e+00	1.556911e+00	1.572193e+00	1.593876e+00	1.623017e+00	1.619561e+00	1.708236e+00	9.248387e-01	8.974742e-01	9.626074e-01	1.292080e+00	1.291884e+00	1.291816e+00	1.292071e+00	1.292306e+00	1.292148e+00	1.291690e+00	1.291775e+00	1.291941e+00	1.291807e+00	1.292148e+00	1.292148e+00	1.292044e+00	1.292369e+00	1.292352e+00	1.292330e+00	1.292311e+00	1.292023e+00	1.292068e+00	1.291997e+00	1.292428e+00	1.292470e+00	1.292442e+00	1.292052e+00	1.292066e+00	1.292023e+00	1.292554e+00	1.292588e+00	1.292540e+00	1.292377e+00	1.291971e+00	1.291844e+00	1.291788e+00	1.291880e+00	1.292480e+00	1.292509e+00	1.291869e+00	1.291838e+00	1.291892e+00	1.292632e+00	1.292713e+00	1.292642e+00	1.291545e+00	1.291542e+00	1.291653e+00	1.291890e+00	1.291843e+00	1.291307e+00	1.291394e+00	1.302010e+00	1.299883e+00	1.299250e+00	1.284897e+00	1.294139e+00	1.291222e+00	1.283473e+00	1.281513e+00	1.292041e+00	1.308666e+00	1.302566e+00	1.320357e+00	1.260149e+00	1.277042e+00	1.279042e+00	1.333887e+00	1.308578e+00	1.347918e+00	1.295860e+00	1.301567e+00	1.303272e+00	1.304872e+00	1.309392e+00	1.327495e+00	1.313013e+00	1.303230e+00	1.294632e+00	1.287561e+00	1.288777e+00	1.261870e+00	1.273433e+00	1.268724e+00	1.261518e+00	1.259397e+00	1.264934e+00	1.267783e+00	1.283527e+00	1.291827e+00	1.253439e+00	1.247968e+00	1.248558e+00	1.214599e+00	1.219027e+00	1.226426e+00	1.243139e+00	1.237468e+00	1.205461e+00	9.978261e-01	1.006258e+00	1.342999e+00	1.346053e+00	1.333276e+00	1.389121e+00	1.400493e+00	1.391966e+00	1.410023e+00	1.418598e+00	1.416703e+00	1.408595e+00	1.415820e+00	1.401304e+00	1.408391e+00	1.240295e+00	1.240027e+00	1.248174e+00	1.317389e+00	1.341125e+00	1.325680e+00	1.300604e+00	1.330007e+00	1.311373e+00	1.146361e+00	1.141662e+00	1.151231e+00	1.142116e+00	1.147782e+00	1.132780e+00	1.148830e+00	1.137669e+00	1.128464e+00	1.134320e+00	1.139769e+00	1.159049e+00	1.165247e+00	1.193706e+00	1.169937e+00	1.097918e+00	1.163331e+00	1.126376e+00	1.126467e+00	5.778165e-01	5.724889e-01	7.354688e-01	1.189444e+00	1.154421e+00	1.174244e+00	1.146871e+00	1.141238e+00	1.144752e+00	1.144893e+00	1.137334e+00	1.138521e+00	5.981504e-01	5.351329e-01	5.839608e-01	5.363973e-01	5.602740e-01	1.142512e+00	1.345486e+00	1.336756e+00	1.347883e+00	1.388439e+00	1.392224e+00	1.391002e+00	1.220365e+00	1.237005e+00	1.226251e+00	1.171008e+00	1.176584e+00	1.197512e+00	1.210414e+00	1.206582e+00	1.173476e+00	1.178198e+00	1.228735e+00	1.216081e+00	1.215853e+00	1.187172e+00	1.188903e+00	1.389712e+00	1.390427e+00	1.213877e+00	1.223669e+00	1.228463e+00	1.178120e+00	1.185430e+00	1.256056e+00	1.191900e+00	1.236310e+00	1.230757e+00	1.242672e+00	1.290862e+00	1.290999e+00	1.280362e+00	1.274801e+00	1.247351e+00	1.256847e+00	1.167048e+00	1.173878e+00	1.153698e+00	1.393982e+00	1.392198e+00	1.394710e+00	1.394309e+00	8.620378e-01	9.731043e-01	1.116292e+00	1.121241e+00	1.061609e+00	1.170338e+00	1.175619e+00	1.274446e+00	1.265758e+00	1.257102e+00	1.243431e+00	1.259952e+00	1.231663e+00	1.226602e+00	1.233584e+00	1.243727e+00	1.242077e+00	1.231624e+00	1.220617e+00	1.191642e+00	1.180533e+00	1.168795e+00	1.229089e+00	1.240167e+00	1.236833e+00	1.228186e+00	1.182391e+00	1.168963e+00	1.172413e+00	1.387776e+00	1.391312e+00	1.391710e+00	1.389025e+00	1.385603e+00	1.536531e+00	1.570324e+00	1.522117e+00	1.305448e+00	1.306454e+00	1.312057e+00	1.552273e+00	1.535175e+00	1.511443e+00	1.304645e+00	1.302333e+00	1.395676e+00	1.403128e+00	1.429573e+00	1.384875e+00	1.409495e+00	1.647337e+00	1.628061e+00	1.208147e+00	1.215775e+00	1.361882e+00	1.378742e+00	1.568172e+00	1.556921e+00	1.172976e+00	1.171010e+00	1.177124e+00	9.896448e-01	9.692577e-01	9.045241e-01	1.177312e+00	1.179766e+00	1.178569e+00	1.175161e+00	1.173855e+00	1.165842e+00	1.179120e+00	1.181405e+00	9.010489e-01	8.794513e-01	1.160359e+00	1.156441e+00	1.149514e+00	6.688454e-01	7.090604e-01	5.230956e-01	5.167228e-01	5.153978e-01	5.152786e-01	5.135940e-01	1.292036e+00	1.291951e+00	5.925473e-01	5.491606e-01	5.863832e-01	6.501028e-01	6.615991e-01	6.159669e-01	1.291971e+00	6.906195e-01	6.909981e-01	7.389756e-01	7.326905e-01	7.463358e-01	6.957117e-01	1.196567e+00	1.244844e+00	1.246437e+00	1.282427e+00	1.279757e+00	1.285920e+00	7.947277e-01	8.415089e-01	8.564114e-01	1.292079e+00	1.384685e+00	1.385141e+00	1.383776e+00	1.382553e+00	1.385697e+00	1.384095e+00	1.386528e+00	1.355934e+00	1.362031e+00	1.388809e+00	1.390296e+00	1.395359e+00	1.391352e+00	1.397176e+00	1.287242e+00	1.302450e+00	1.269697e+00	1.304977e+00	1.265799e+00	1.274510e+00	1.385621e+00	1.389494e+00	1.376188e+00	1.190160e+00	1.174682e+00	1.150309e+00	1.407280e+00	1.395398e+00	1.424435e+00	1.426343e+00	1.229204e+00	1.252529e+00	1.217013e+00	1.419200e+00	1.422681e+00	1.415419e+00	1.112478e+00	1.425257e+00	1.427026e+00	1.026310e+00	1.022468e+00	1.417090e+00	1.411682e+00	1.413808e+00	1.041475e+00	1.401569e+00	1.398144e+00	1.200094e+00	1.177545e+00	1.169366e+00	1.072441e+00	1.044203e+00	1.032501e+00	1.116086e+00	1.141289e+00	1.109919e+00	1.036365e+00	1.083069e+00	1.028046e+00	9.929400e-01	1.222594e+00	1.231175e+00	1.400555e+00	1.397912e+00	1.405194e+00	1.119747e+00	1.091411e+00	1.094679e+00	1.086756e+00	1.101649e+00	1.065967e+00	1.066001e+00	1.129453e+00	1.166603e+00	1.145202e+00	1.142869e+00	1.153161e+00	1.140503e+00	1.142569e+00	1.149953e+00	1.155536e+00	1.292726e+00	1.292687e+00	1.180089e+00	1.161419e+00	1.172635e+00	1.166874e+00	1.170063e+00	1.175023e+00	1.258929e+00	1.281895e+00	1.292047e+00	9.416497e-01	9.749179e-01	9.888234e-01	1.174677e+00	1.151282e+00	1.308438e+00	1.300828e+00	1.296271e+00	1.292777e+00	1.292725e+00	1.292773e+00	1.135677e+00	1.100827e+00	1.297647e+00	1.299267e+00	1.297969e+00	1.256005e+00	1.367872e+00	1.402048e+00	1.392478e+00	1.416623e+00	1.451339e+00	1.292704e+00	1.292613e+00	1.292592e+00	1.287552e+00	1.477907e+00	1.455478e+00	1.465701e+00	1.292762e+00	1.292736e+00	1.510849e+00	1.497118e+00	1.509997e+00	1.292641e+00	1.293233e+00	1.292983e+00	1.293141e+00	1.547545e+00	1.295166e+00	1.295681e+00	1.294212e+00	1.292532e+00	1.292541e+00	1.292483e+00	1.297597e+00	1.300206e+00	1.300837e+00	1.297642e+00	1.296497e+00	1.297694e+00	1.295587e+00	1.292371e+00	1.292360e+00	1.292299e+00	1.292463e+00	1.292469e+00	1.292423e+00	1.292418e+00	1.292386e+00	1.292393e+00	1.292377e+00	1.292360e+00	1.292337e+00	1.292330e+00	1.292300e+00	1.292316e+00	1.292325e+00	1.292273e+00	1.292264e+00	1.292286e+00	1.234348e+00	1.252061e+00	1.207292e+00	1.198935e+00	1.177450e+00	1.197355e+00	1.291966e+00	1.292227e+00	1.291797e+00	1.292215e+00	1.292122e+00	1.292163e+00	1.292245e+00	9.695515e-01	1.002489e+00	8.223430e-01	1.212365e+00	1.206504e+00	1.351452e+00	1.367460e+00	1.331980e+00	1.292136e+00	1.251431e+00	1.238387e+00	1.225931e+00	1.229882e+00	1.238092e+00	1.244875e+00	1.240969e+00	1.240929e+00	1.235722e+00	1.231932e+00	1.236330e+00	1.292349e+00	1.292344e+00	1.125427e+00	1.014906e+00	1.032920e+00	1.292880e+00	1.292858e+00	1.293405e+00	1.394004e+00	1.394627e+00	1.392851e+00	1.292825e+00	1.292631e+00	1.292259e+00	1.292442e+00	1.292407e+00	1.292868e+00	1.292696e+00	1.292695e+00	1.292233e+00	1.292557e+00	1.292739e+00	1.291902e+00	1.291939e+00	1.291890e+00	1.291566e+00	1.291473e+00	1.291789e+00	1.292391e+00	1.291801e+00	1.291863e+00	1.292132e+00	1.292812e+00	1.292200e+00	1.292197e+00	1.292022e+00	1.297176e+00	1.292193e+00	1.296879e+00	1.292274e+00	1.293153e+00	1.293070e+00	1.293488e+00	1.534314e+00	1.512439e+00	1.513090e+00	1.291745e+00	1.291884e+00	1.291668e+00	1.292037e+00	1.291575e+00	1.291152e+00	1.290685e+00	1.291468e+00	1.288966e+00	1.290220e+00	1.289412e+00	1.292914e+00	1.293550e+00	1.292456e+00	1.292332e+00	1.292448e+00	1.292585e+00	1.292511e+00	1.292351e+00	1.292377e+00	1.292322e+00	1.292330e+00	1.292302e+00	1.292283e+00	1.292275e+00	1.292243e+00	1.291914e+00	1.291851e+00	1.292767e+00	1.292866e+00	1.292798e+00	1.292848e+00	1.292097e+00	1.292051e+00	1.292005e+00	1.291820e+00	1.291908e+00	1.291947e+00	1.291709e+00	1.291704e+00	1.291679e+00	1.292243e+00	1.292353e+00	1.292706e+00	1.292633e+00	1.292531e+00	1.292705e+00	1.292506e+00	1.292506e+00	1.292587e+00	1.291922e+00	1.292044e+00	1.292365e+00	1.292888e+00	1.292880e+00	1.292724e+00	8.566207e-01	8.393108e-01	1.235637e+00	1.291684e+00	1.291531e+00	1.303651e+00	1.293765e+00	1.292878e+00	1.291925e+00	1.292951e+00	1.292763e+00	1.292765e+00	1.291976e+00	1.292069e+00	1.291996e+00	1.292439e+00	1.292473e+00	1.291560e+00	1.292659e+00	1.292389e+00	1.292745e+00	1.292559e+00	1.292444e+00	1.291206e+00	1.291955e+00	1.292818e+00	1.292590e+00	1.293894e+00	1.291936e+00	1.292863e+00	1.294115e+00	1.294513e+00	1.293778e+00	1.290947e+00	1.290716e+00	1.292244e+00	1.292194e+00	1.292354e+00	1.292692e+00	1.292779e+00	1.292670e+00	1.291889e+00	1.291865e+00	1.292301e+00	1.292378e+00	1.292408e+00	1.292453e+00	1.292383e+00	1.292424e+00	1.292145e+00	1.292204e+00	1.292807e+00	1.292775e+00	1.292877e+00	1.291912e+00	1.291724e+00	1.291949e+00	1.292353e+00	1.292401e+00	1.292493e+00	1.292568e+00	1.291587e+00	1.292812e+00	1.292828e+00	1.292894e+00	1.291652e+00	1.291951e+00	1.292585e+00	1.291288e+00	1.291745e+00	1.292002e+00	1.291481e+00	1.293157e+00	1.292529e+00	1.292668e+00	1.292594e+00	1.289910e+00	1.293452e+00	1.293706e+00	1.306713e+00	1.302872e+00	1.311746e+00	1.292562e+00	1.292494e+00	1.292582e+00	1.292451e+00	1.292046e+00	1.292370e+00	1.292470e+00	1.292102e+00	1.291870e+00	1.291744e+00	1.291779e+00	1.291644e+00	1.292474e+00	1.291961e+00	1.291918e+00	1.291755e+00	1.291676e+00	1.293021e+00	1.292974e+00	1.292108e+00	1.291801e+00	1.292431e+00	1.287910e+00	1.289986e+00	1.291773e+00	1.294376e+00	1.294836e+00	1.293873e+00	1.292619e+00	1.292687e+00	1.291140e+00	1.293102e+00	1.295477e+00	1.294156e+00	1.290979e+00	1.291888e+00	1.292364e+00	1.291324e+00	1.291233e+00	1.293962e+00	1.294601e+00	1.296421e+00	1.291780e+00	1.288764e+00	1.526451e+00	1.539432e+00	1.294074e+00	1.290200e+00	1.296591e+00	1.296052e+00	1.291068e+00	1.292631e+00	1.293106e+00	1.293308e+00	1.286244e+00	1.287699e+00	1.289230e+00	1.290909e+00	1.290188e+00	1.295730e+00	1.295290e+00	1.285421e+00	1.285217e+00	1.287455e+00	1.291271e+00	1.288545e+00	1.293053e+00	1.293991e+00	1.298662e+00	1.301326e+00	1.294375e+00	1.288005e+00	1.291206e+00	1.291775e+00	1.289624e+00	1.293037e+00	1.290153e+00	1.295039e+00	1.295418e+00	1.275190e+00	1.293361e+00	1.289929e+00	1.307074e+00	1.285724e+00	1.286781e+00	1.288630e+00	1.294033e+00	1.294417e+00	1.292572e+00	1.269377e+00	1.271414e+00	1.286943e+00	1.281804e+00	1.306747e+00	1.300878e+00	1.299344e+00	1.299781e+00	1.300437e+00	1.297320e+00	1.277513e+00	1.283057e+00	1.295092e+00	9.200612e-01	9.524282e-01	1.297220e+00	1.280109e+00	1.289519e+00	1.280457e+00	1.293610e+00	1.294457e+00	1.295046e+00	1.279056e+00	1.288115e+00	1.296133e+00	1.223068e+00	1.212558e+00	1.218952e+00	1.267099e+00	1.254218e+00	1.424948e+00	1.451816e+00	1.461614e+00	1.297801e+00	1.297800e+00	1.298558e+00	1.292241e+00	1.296223e+00	1.289065e+00	1.304299e+00	1.323845e+00	1.319200e+00	1.267493e+00	1.208259e+00	1.299470e+00	1.285892e+00	1.277223e+00	1.292302e+00	1.282089e+00	1.283072e+00	1.271787e+00	1.299113e+00	1.045420e+00	1.306679e+00	1.307864e+00	1.268883e+00	1.258310e+00	1.168815e+00	1.269898e+00	1.307727e+00	1.352645e+00	1.330503e+00	1.342462e+00	1.583064e+00	1.571263e+00	1.557787e+00	1.319171e+00	1.288665e+00	1.309342e+00	1.304366e+00	1.228659e+00	1.150392e+00	1.143961e+00	1.291571e+00	1.257761e+00	1.244787e+00	8.762670e-01	8.832910e-01	9.119391e-01	1.278020e+00	1.311006e+00	1.318798e+00	1.317214e+00	1.272390e+00	1.295506e+00	1.305776e+00	1.295949e+00	1.312113e+00	1.316821e+00	1.377818e+00	1.196428e+00	1.115960e+00	1.275292e+00	1.321995e+00	1.284626e+00	1.269186e+00	1.394213e+00	1.206067e+00	1.259976e+00	8.091749e-01	1.304907e+00	1.218877e+00	1.162475e+00	1.218781e+00	1.330812e+00	1.318482e+00	1.328039e+00	1.282091e+00	1.348751e+00	1.339989e+00	1.271948e+00	1.274023e+00	1.270931e+00	1.283366e+00	1.312374e+00	1.328037e+00	1.294428e+00	1.248780e+00	1.246810e+00	1.217420e+00	9.869864e-01	1.268538e+00	1.311977e+00	1.422182e+00	1.316027e+00	1.231780e+00	1.274339e+00	1.320376e+00	1.234861e+00	1.243240e+00	1.206042e+00	1.265767e+00	1.336016e+00	1.118686e+00	1.155906e+00	1.096638e+00	1.319618e+00	1.335100e+00	1.336659e+00	1.347303e+00	1.339527e+00	1.301690e+00	1.283978e+00	1.315385e+00	1.485250e+00	1.228480e+00	1.182756e+00	1.243945e+00	1.344734e+00	1.336132e+00	1.213480e+00	1.248907e+00	1.226031e+00	1.256706e+00	1.317796e+00	1.360532e+00	1.351124e+00	1.317694e+00	1.391114e+00	1.392365e+00	1.292299e+00	1.322654e+00	9.920095e-01	1.270462e+00	1.122950e+00	1.226955e+00	1.257260e+00	1.322897e+00	1.333347e+00	1.292862e+00	1.386898e+00	1.371699e+00	1.214940e+00	1.281661e+00	1.249032e+00	1.373931e+00	1.356973e+00	1.163952e+00	1.353111e+00	1.327806e+00	1.348306e+00	8.177556e-01	8.688106e-01	9.543776e-01	1.144092e+00	1.147710e+00	1.357165e+00	1.187127e+00	1.192456e+00	1.339926e+00	1.345763e+00	1.337464e+00	1.326011e+00	1.193716e+00	1.236953e+00	1.177538e+00	1.252668e+00	1.240605e+00	9.161326e-01	7.432411e-01	1.372255e+00	1.464909e+00	1.443825e+00	1.484631e+00	1.221403e+00	1.253040e+00	1.332904e+00	1.268127e+00	1.269087e+00	1.264929e+00	1.391230e+00	1.392859e+00	1.362574e+00	1.346816e+00	1.347261e+00	1.362712e+00	1.197073e+00	1.299708e+00	1.204873e+00	1.175981e+00	1.218980e+00	1.258482e+00	1.274057e+00	1.277960e+00	1.283560e+00	1.417529e+00	1.442182e+00	1.394998e+00	1.257176e+00	1.373063e+00	1.327444e+00	1.360616e+00	1.163188e+00	1.191890e+00	1.354793e+00	1.201263e+00	1.164494e+00	1.194402e+00	1.211625e+00	1.192324e+00	1.132325e+00	1.328448e+00	1.131817e+00	1.401851e+00	1.357441e+00	1.351008e+00	1.311081e+00	1.214781e+00	1.210449e+00	1.180994e+00	1.215613e+00	1.287809e+00	1.277806e+00	1.230922e+00	1.247544e+00	8.004771e-01	9.086092e-01	5.357194e-01	1.238128e+00	1.269112e+00	1.276910e+00	1.476884e+00	1.510564e+00	1.557382e+00	1.565973e+00	1.581379e+00	9.005926e-01	9.363089e-01	1.316248e+00	1.366353e+00	1.385573e+00	1.386797e+00	9.515627e-01	7.940000e-01	7.555927e-01	9.131289e-01	8.194808e-01	9.197785e-01	1.363973e+00	1.357164e+00	1.369229e+00	1.266750e+00	1.076354e+00	1.048049e+00	1.134689e+00	1.142406e+00	1.396854e+00	1.334869e+00	1.178443e+00	1.189429e+00	1.370037e+00	1.326984e+00	1.184560e+00	1.284243e+00	1.242368e+00	1.231989e+00	1.239397e+00	1.224780e+00	1.229304e+00	1.224728e+00	1.372708e+00	1.389283e+00	1.374126e+00	1.373279e+00	1.172601e+00	1.296978e+00	1.238163e+00	1.250132e+00	1.201920e+00	1.215087e+00	9.050214e-01	9.855151e-01	1.415131e+00	7.155357e-01	6.743369e-01	1.419588e+00	1.388029e+00	1.377256e+00	1.428101e+00	1.389770e+00	1.431683e+00	1.233728e+00	1.116023e+00	1.178758e+00	1.352301e+00	1.357238e+00	1.348105e+00	1.382204e+00	1.379585e+00	1.394967e+00	1.328302e+00	1.331395e+00	1.234351e+00	1.228163e+00	8.722621e-01	1.183342e+00	1.187169e+00	7.169440e-01	6.471967e-01	1.204633e+00	1.277860e+00	1.271756e+00	1.279154e+00	1.124463e+00	1.581088e+00	1.113310e+00	1.177188e+00	1.376654e+00	1.428876e+00	1.151459e+00	1.138968e+00	1.143378e+00	1.373480e+00	1.377260e+00	1.379354e+00	1.384621e+00	1.386086e+00	1.150584e+00	1.316639e+00	1.284380e+00	1.233879e+00	1.376360e+00	1.382007e+00	1.387396e+00	1.177823e+00	1.178950e+00	1.174920e+00	1.185880e+00	5.853670e-01	5.391880e-01	1.364731e+00	1.114425e+00	1.142891e+00	1.192617e+00	6.744513e-01	6.308502e-01	1.269543e+00	1.249670e+00	1.240413e+00	1.146866e+00	1.383321e+00	1.377971e+00	1.373581e+00	1.354769e+00	1.337575e+00	1.348216e+00	1.193183e+00	1.215252e+00	1.185881e+00	1.272407e+00	1.280256e+00	1.306640e+00	1.227595e+00	1.234733e+00	1.241839e+00	1.161977e+00	1.185059e+00	1.199719e+00	1.194152e+00	1.209007e+00	1.219761e+00	1.477508e+00	1.495616e+00	1.519769e+00	1.147656e+00	1.433188e+00	1.065022e+00	9.151942e-01	1.164243e+00	1.094624e+00	1.158103e+00	1.166564e+00	1.249053e+00	1.244061e+00	1.250649e+00	9.873996e-01	1.153804e+00	1.481831e+00	1.500386e+00	1.550427e+00	1.526186e+00	1.538736e+00	1.587255e+00	1.602223e+00	1.453791e+00	1.344910e+00	1.287419e+00	1.287095e+00	1.380435e+00	1.376449e+00	1.377272e+00	1.369367e+00	1.233649e+00	1.218855e+00	1.198351e+00	1.190724e+00	1.192754e+00	1.048504e+00	1.136061e+00	1.135403e+00	1.158577e+00	1.108899e+00	1.157369e+00	1.205549e+00	1.110637e+00	1.382131e+00	1.418402e+00	1.422400e+00	6.353759e-01	6.451874e-01	8.225979e-01	7.442771e-01	1.248218e+00	1.133920e+00	1.273823e+00	1.259299e+00	7.747853e-01	8.625562e-01	8.286428e-01	1.178620e+00	1.174237e+00	1.170859e+00	1.272611e+00	1.225398e+00	1.404222e+00	1.397175e+00	1.387110e+00	1.377115e+00	1.098685e+00	1.062081e+00	8.748680e-01	8.537412e-01	1.442934e+00	1.220920e+00	1.185001e+00	1.305986e+00	1.443398e+00	1.407734e+00	1.540191e+00	1.518255e+00	1.402627e+00	1.387638e+00	1.456893e+00	1.393472e+00	1.410599e+00	1.419138e+00	1.232441e+00	1.215854e+00	1.265323e+00	1.142219e+00	1.177410e+00	1.149986e+00	1.208877e+00	1.170646e+00	1.373446e+00	1.386535e+00	1.383860e+00	1.241346e+00	1.244145e+00	1.259003e+00	1.364549e+00	8.813007e-01	5.949186