# vtk DataFile Version 3.0
vtk output
ASCII
DATASET UNSTRUCTURED_GRID
POINTS 198 double
0.000000e+00	0.000000e+00	0.0	3.390596e-03	3.674759e-03	0.0	7.041386e-03	7.332579e-03	0.0	1.147775e-02	1.037376e-02	0.0	1.615948e-02	1.338483e-02	0.0	2.133067e-02	1.596015e-02	0.0	2.673188e-02	1.852477e-02	0.0	3.250973e-02	2.075785e-02	0.0	3.852205e-02	2.297336e-02	0.0	4.484584e-02	2.496484e-02	0.0	5.141055e-02	2.693213e-02	0.0	5.823850e-02	2.881390e-02	0.0	6.530185e-02	3.071440e-02	0.0	7.260065e-02	3.264723e-02	0.0	8.011107e-02	3.471323e-02	0.0	8.784349e-02	3.688380e-02	0.0	9.578097e-02	3.922756e-02	0.0	1.039343e-01	4.171068e-02	0.0	1.123016e-01	4.434573e-02	0.0	1.208917e-01	4.710629e-02	0.0	1.297041e-01	4.999761e-02	0.0	1.387656e-01	5.293806e-02	0.0	1.481036e-01	5.584217e-02	0.0	1.576821e-01	5.882107e-02	0.0	1.675914e-01	6.155557e-02	0.0	1.777778e-01	6.422798e-02	0.0	1.882264e-01	6.685970e-02	0.0	1.990595e-01	6.889299e-02	0.0	2.101292e-01	7.097068e-02	0.0	2.215107e-01	7.253935e-02	0.0	2.331842e-01	7.370140e-02	0.0	2.450838e-01	7.486924e-02	0.0	2.572599e-01	7.504799e-02	0.0	2.696489e-01	7.522987e-02	0.0	2.822300e-01	7.490588e-02	0.0	2.949941e-01	7.404808e-02	0.0	3.079458e-01	7.317767e-02	0.0	3.209797e-01	7.137102e-02	0.0	3.341774e-01	6.951502e-02	0.0	3.475004e-01	6.744446e-02	0.0	3.609293e-01	6.510899e-02	0.0	3.744899e-01	6.275063e-02	0.0	3.881975e-01	6.053722e-02	0.0	4.020143e-01	5.832252e-02	0.0	4.159648e-01	5.639883e-02	0.0	4.300572e-01	5.493414e-02	0.0	4.442157e-01	5.346259e-02	0.0	4.584824e-01	5.275059e-02	0.0	4.727925e-01	5.212101e-02	0.0	4.871301e-01	5.165778e-02	0.0	5.014821e-01	5.142558e-02	0.0	5.158266e-01	5.119350e-02	0.0	5.301474e-01	5.089359e-02	0.0	5.444309e-01	5.059010e-02	0.0	5.586550e-01	5.008551e-02	0.0	5.728038e-01	4.934258e-02	0.0	5.868721e-01	4.860386e-02	0.0	6.008102e-01	4.736723e-02	0.0	6.146393e-01	4.612033e-02	0.0	6.283202e-01	4.463498e-02	0.0	6.418349e-01	4.286223e-02	0.0	6.552052e-01	4.110843e-02	0.0	6.683423e-01	3.886918e-02	0.0	6.813067e-01	3.661203e-02	0.0	6.940788e-01	3.429599e-02	0.0	7.066354e-01	3.184893e-02	0.0	7.189986e-01	2.943957e-02	0.0	7.311934e-01	2.724901e-02	0.0	7.431878e-01	2.514572e-02	0.0	7.549954e-01	2.329324e-02	0.0	7.666610e-01	2.205358e-02	0.0	7.780962e-01	2.083840e-02	0.0	7.893506e-01	2.060140e-02	0.0	8.003726e-01	2.050993e-02	0.0	8.111433e-01	2.077941e-02	0.0	8.216625e-01	2.128016e-02	0.0	8.319344e-01	2.172751e-02	0.0	8.419586e-01	2.209675e-02	0.0	8.517311e-01	2.235967e-02	0.0	8.612513e-01	2.200350e-02	0.0	8.705194e-01	2.165675e-02	0.0	8.794997e-01	2.081996e-02	0.0	8.882207e-01	1.987234e-02	0.0	8.966778e-01	1.882661e-02	0.0	9.048567e-01	1.756053e-02	0.0	9.127936e-01	1.633191e-02	0.0	9.204698e-01	1.500991e-02	0.0	9.279059e-01	1.370103e-02	0.0	9.351072e-01	1.241841e-02	0.0	9.420753e-01	1.115068e-02	0.0	9.488188e-01	9.923398e-03	0.0	9.553362e-01	8.707199e-03	0.0	9.616374e-01	7.531356e-03	0.0	9.677228e-01	6.374407e-03	0.0	9.736001e-01	5.253220e-03	0.0	9.792713e-01	4.152634e-03	0.0	9.847432e-01	3.083350e-03	0.0	9.900195e-01	2.038822e-03	0.0	9.951041e-01	1.014213e-03	0.0	1.000000e+00	0.000000e+00	0.0	9.950044e-01	2.071935e-04	0.0	9.898189e-01	4.081029e-04	0.0	9.844372e-01	5.585446e-04	0.0	9.788549e-01	6.630296e-04	0.0	9.730675e-01	7.422364e-04	0.0	9.670700e-01	7.617812e-04	0.0	9.608581e-01	7.576825e-04	0.0	9.544273e-01	6.877289e-04	0.0	9.477729e-01	6.004928e-04	0.0	9.408919e-01	4.184685e-04	0.0	9.337785e-01	2.302946e-04	0.0	9.264319e-01	-6.333383e-05	0.0	9.188459e-01	-3.869459e-04	0.0	9.110176e-01	-7.508736e-04	0.0	9.029446e-01	-1.172095e-03	0.0	8.946218e-01	-1.606344e-03	0.0	8.860465e-01	-2.045631e-03	0.0	8.772167e-01	-2.497212e-03	0.0	8.681289e-01	-2.918106e-03	0.0	8.587814e-01	-3.301671e-03	0.0	8.491753e-01	-3.682597e-03	0.0	8.393076e-01	-3.982800e-03	0.0	8.291818e-01	-4.290857e-03	0.0	8.188023e-01	-4.707222e-03	0.0	8.081676e-01	-5.146222e-03	0.0	7.972930e-01	-5.832891e-03	0.0	7.861745e-01	-6.647618e-03	0.0	7.748298e-01	-7.695260e-03	0.0	7.632723e-01	-9.070528e-03	0.0	7.514807e-01	-1.049185e-02	0.0	7.395413e-01	-1.251865e-02	0.0	7.273787e-01	-1.458336e-02	0.0	7.150688e-01	-1.703562e-02	0.0	7.026117e-01	-1.983478e-02	0.0	6.899563e-01	-2.267847e-02	0.0	6.772933e-01	-2.627664e-02	0.0	6.644579e-01	-2.994376e-02	0.0	6.515194e-01	-3.386478e-02	0.0	6.385335e-01	-3.818170e-02	0.0	6.254048e-01	-4.254608e-02	0.0	6.121399e-01	-4.693825e-02	0.0	5.987546e-01	-5.136461e-02	0.0	5.852327e-01	-5.572534e-02	0.0	5.714541e-01	-5.957915e-02	0.0	5.575953e-01	-6.345540e-02	0.0	5.434990e-01	-6.661889e-02	0.0	5.292409e-01	-6.932728e-02	0.0	5.149248e-01	-7.190973e-02	0.0	5.004410e-01	-7.353555e-02	0.0	4.859496e-01	-7.516224e-02	0.0	4.714243e-01	-7.631362e-02	0.0	4.569013e-01	-7.722519e-02	0.0	4.424131e-01	-7.806328e-02	0.0	4.279656e-01	-7.864916e-02	0.0	4.135867e-01	-7.923227e-02	0.0	3.992888e-01	-7.975294e-02	0.0	3.850879e-01	-8.025339e-02	0.0	3.709986e-01	-8.075370e-02	0.0	3.570345e-01	-8.125716e-02	0.0	3.432084e-01	-8.175564e-02	0.0	3.295358e-01	-8.232999e-02	0.0	3.160257e-01	-8.290836e-02	0.0	3.026911e-01	-8.352391e-02	0.0	2.895432e-01	-8.419146e-02	0.0	2.765889e-01	-8.484917e-02	0.0	2.638328e-01	-8.539343e-02	0.0	2.512879e-01	-8.592391e-02	0.0	2.389574e-01	-8.626283e-02	0.0	2.268480e-01	-8.640220e-02	0.0	2.149715e-01	-8.653324e-02	0.0	2.033440e-01	-8.601510e-02	0.0	1.919595e-01	-8.550779e-02	0.0	1.808606e-01	-8.455265e-02	0.0	1.700447e-01	-8.322238e-02	0.0	1.594894e-01	-8.187151e-02	0.0	1.493520e-01	-7.960416e-02	0.0	1.394657e-01	-7.739298e-02	0.0	1.300075e-01	-7.462554e-02	0.0	1.209422e-01	-7.142478e-02	0.0	1.121207e-01	-6.831005e-02	0.0	1.039560e-01	-6.429949e-02	0.0	9.602879e-02	-6.038429e-02	0.0	8.843545e-02	-5.638736e-02	0.0	8.126554e-02	-5.213896e-02	0.0	7.431075e-02	-4.801803e-02	0.0	6.763883e-02	-4.390787e-02	0.0	6.120592e-02	-3.987423e-02	0.0	5.495601e-02	-3.600262e-02	0.0	4.879847e-02	-3.243596e-02	0.0	4.284216e-02	-2.898586e-02	0.0	3.695604e-02	-2.588141e-02	0.0	3.125716e-02	-2.290088e-02	0.0	2.575561e-02	-2.001607e-02	0.0	2.049753e-02	-1.713713e-02	0.0	1.557902e-02	-1.408607e-02	0.0	1.103820e-02	-1.085034e-02	0.0	6.801029e-03	-7.530179e-03	0.0	3.067563e-03	-3.925957e-03	0.0	
CELLS 198	594
2	17	18	2	18	19	2	19	20	2	20	21	2	21	22	2	22	23	2	23	24	2	24	25	2	25	26	2	26	27	2	27	28	2	28	29	2	29	30	2	30	31	2	31	32	2	32	33	2	33	34	2	34	35	2	35	36	2	36	37	2	37	38	2	38	39	2	39	40	2	40	41	2	41	42	2	42	43	2	43	44	2	44	45	2	45	46	2	46	47	2	47	48	2	48	49	2	49	50	2	50	51	2	51	52	2	52	53	2	53	54	2	54	55	2	55	56	2	56	57	2	57	58	2	58	59	2	59	60	2	60	61	2	61	62	2	62	63	2	63	64	2	64	65	2	65	66	2	66	67	2	67	68	2	68	69	2	69	70	2	70	71	2	71	72	2	72	73	2	73	74	2	74	75	2	75	76	2	76	77	2	77	78	2	78	79	2	79	80	2	80	81	2	81	82	2	82	83	2	83	84	2	84	85	2	85	86	2	86	87	2	87	88	2	88	89	2	89	90	2	90	91	2	91	92	2	92	93	2	93	94	2	94	95	2	95	96	2	96	97	2	97	98	2	98	99	2	99	100	2	100	101	2	101	102	2	102	103	2	103	104	2	104	105	2	105	106	2	106	107	2	107	108	2	108	109	2	109	110	2	110	111	2	111	112	2	112	113	2	113	114	2	114	115	2	115	116	2	116	117	2	117	118	2	118	119	2	119	120	2	120	121	2	121	122	2	122	123	2	123	124	2	124	125	2	125	126	2	126	127	2	127	128	2	128	129	2	129	130	2	130	131	2	131	132	2	132	133	2	133	134	2	134	135	2	135	136	2	136	137	2	137	138	2	138	139	2	139	140	2	140	141	2	141	142	2	142	143	2	143	144	2	144	145	2	145	146	2	146	147	2	147	148	2	148	149	2	149	150	2	150	151	2	151	152	2	0	1	2	1	2	2	2	3	2	3	4	2	4	5	2	5	6	2	6	7	2	7	8	2	8	9	2	9	10	2	10	11	2	11	12	2	12	13	2	13	14	2	14	15	2	15	16	2	16	17	2	152	153	2	153	154	2	154	155	2	155	156	2	156	157	2	157	158	2	158	159	2	159	160	2	160	161	2	161	162	2	162	163	2	163	164	2	164	165	2	165	166	2	166	167	2	167	168	2	168	169	2	169	170	2	170	171	2	171	172	2	172	173	2	173	174	2	174	175	2	175	176	2	176	177	2	177	178	2	178	179	2	179	180	2	180	181	2	181	182	2	182	183	2	183	184	2	184	185	2	185	186	2	186	187	2	187	188	2	188	189	2	189	190	2	190	191	2	191	192	2	192	193	2	193	194	2	194	195	2	195	196	2	196	197	2	197	0	
CELL_TYPES 198
3	3	3	3	3	3	3	3	3	3	3	3	3	3	3	3	3	3	3	3	3	3	3	3	3	3	3	3	3	3	3	3	3	3	3	3	3	3	3	3	3	3	3	3	3	3	3	3	3	3	3	3	3	3	3	3	3	3	3	3	3	3	3	3	3	3	3	3	3	3	3	3	3	3	3	3	3	3	3	3	3	3	3	3	3	3	3	3	3	3	3	3	3	3	3	3	3	3	3	3	3	3	3	3	3	3	3	3	3	3	3	3	3	3	3	3	3	3	3	3	3	3	3	3	3	3	3	3	3	3	3	3	3	3	3	3	3	3	3	3	3	3	3	3	3	3	3	3	3	3	3	3	3	3	3	3	3	3	3	3	3	3	3	3	3	3	3	3	3	3	3	3	3	3	3	3	3	3	3	3	3	3	3	3	3	3	3	3	3	3	3	3	3	3	3	3	3	3	
POINT_DATA 198

SCALARS Density double 1
LOOKUP_TABLE default
1.538104e+00	1.156856e+00	1.209450e+00	1.161351e+00	1.139252e+00	1.119420e+00	1.115644e+00	1.111124e+00	1.123795e+00	1.138454e+00	1.160607e+00	1.181080e+00	1.200136e+00	1.217028e+00	1.228267e+00	1.230490e+00	1.230245e+00	1.222254e+00	1.212633e+00	1.196166e+00	1.172668e+00	1.141478e+00	1.114038e+00	1.076047e+00	1.036849e+00	1.010482e+00	9.493538e-01	9.029467e-01	8.663815e-01	8.081815e-01	7.878363e-01	7.355298e-01	6.855075e-01	6.634963e-01	6.212449e-01	5.991995e-01	5.641637e-01	5.288811e-01	5.197502e-01	5.083704e-01	5.001001e-01	5.135293e-01	5.216611e-01	5.442964e-01	5.834575e-01	7.063854e-01	1.033218e+00	1.217562e+00	1.193962e+00	1.179536e+00	1.169653e+00	1.156652e+00	1.148235e+00	1.138485e+00	1.128188e+00	1.128476e+00	1.121755e+00	1.122867e+00	1.132811e+00	1.132872e+00	1.145652e+00	1.152881e+00	1.165163e+00	1.188782e+00	1.202246e+00	1.219200e+00	1.240232e+00	1.254108e+00	1.265624e+00	1.283785e+00	1.285161e+00	1.291389e+00	1.290978e+00	1.272371e+00	1.262822e+00	1.240667e+00	1.216743e+00	1.198187e+00	1.170256e+00	1.162729e+00	1.164972e+00	1.163603e+00	1.180014e+00	1.185316e+00	1.197772e+00	1.211110e+00	1.219096e+00	1.230945e+00	1.238423e+00	1.245619e+00	1.251992e+00	1.258341e+00	1.264848e+00	1.271135e+00	1.278052e+00	1.285190e+00	1.294270e+00	1.308283e+00	1.313937e+00	1.333498e+00	1.428324e+00	1.384151e+00	1.394886e+00	1.393629e+00	1.395275e+00	1.395719e+00	1.395869e+00	1.397096e+00	1.396377e+00	1.396314e+00	1.396177e+00	1.392616e+00	1.391832e+00	1.389038e+00	1.385637e+00	1.383917e+00	1.381733e+00	1.380176e+00	1.381860e+00	1.382934e+00	1.386921e+00	1.396309e+00	1.402637e+00	1.411648e+00	1.418875e+00	1.423231e+00	1.430268e+00	1.428007e+00	1.434178e+00	1.433436e+00	1.428283e+00	1.431040e+00	1.419847e+00	1.421885e+00	1.415201e+00	1.397418e+00	1.390239e+00	1.370201e+00	1.343484e+00	1.318843e+00	1.287665e+00	1.241679e+00	1.207598e+00	1.157264e+00	1.103184e+00	1.057166e+00	9.965026e-01	9.935261e-01	1.016740e+00	1.033589e+00	1.066935e+00	1.087461e+00	1.109651e+00	1.130984e+00	1.144445e+00	1.156649e+00	1.164926e+00	1.170958e+00	1.177528e+00	1.180010e+00	1.179388e+00	1.178065e+00	1.170497e+00	1.166783e+00	1.159339e+00	1.116421e+00	9.540962e-01	8.355586e-01	8.067087e-01	8.259323e-01	8.503965e-01	8.583699e-01	8.860325e-01	8.932684e-01	9.402180e-01	9.948371e-01	1.029949e+00	1.097114e+00	1.114113e+00	1.175470e+00	1.257914e+00	1.288356e+00	1.339717e+00	1.384561e+00	1.415135e+00	1.449384e+00	1.479790e+00	1.498941e+00	1.516810e+00	1.531526e+00	1.538351e+00	1.548719e+00	1.556911e+00	1.572193e+00	1.593876e+00	1.623017e+00	1.619561e+00	1.708236e+00	
VECTORS Momentum double
1.735039e+01	2.129547e+02	0.0	1.711630e+02	1.748821e+02	0.0	1.975359e+02	1.657571e+02	0.0	2.268137e+02	1.502429e+02	0.0	2.483122e+02	1.404214e+02	0.0	2.613293e+02	1.268299e+02	0.0	2.723320e+02	1.167774e+02	0.0	2.779705e+02	1.046013e+02	0.0	2.823482e+02	9.613880e+01	0.0	2.844402e+02	8.734592e+01	0.0	2.836153e+02	8.144437e+01	0.0	2.824366e+02	7.684217e+01	0.0	2.796033e+02	7.448237e+01	0.0	2.781687e+02	7.493468e+01	0.0	2.774792e+02	7.717969e+01	0.0	2.760395e+02	7.949776e+01	0.0	2.770383e+02	8.307908e+01	0.0	2.789527e+02	8.628417e+01	0.0	2.825828e+02	8.981129e+01	0.0	2.860230e+02	9.289185e+01	0.0	2.906175e+02	9.487514e+01	0.0	2.951034e+02	9.366055e+01	0.0	2.997768e+02	9.320861e+01	0.0	3.050038e+02	8.939299e+01	0.0	3.076176e+02	8.260056e+01	0.0	3.118334e+02	8.022526e+01	0.0	3.120394e+02	6.827252e+01	0.0	3.111712e+02	5.819450e+01	0.0	3.111564e+02	5.076088e+01	0.0	3.036503e+02	3.551660e+01	0.0	3.034862e+02	3.038245e+01	0.0	2.953780e+02	1.724489e+01	0.0	2.851054e+02	4.417990e+00	0.0	2.822295e+02	-1.382595e+00	0.0	2.709582e+02	-1.217098e+01	0.0	2.657722e+02	-1.761422e+01	0.0	2.559434e+02	-2.561644e+01	0.0	2.436961e+02	-3.386733e+01	0.0	2.411740e+02	-3.620068e+01	0.0	2.372805e+02	-3.912139e+01	0.0	2.334735e+02	-4.130071e+01	0.0	2.392547e+02	-4.111716e+01	0.0	2.401764e+02	-3.936444e+01	0.0	2.506350e+02	-3.761001e+01	0.0	2.571816e+02	-3.230069e+01	0.0	2.668475e+02	-2.915858e+01	0.0	2.825131e+02	-2.318375e+01	0.0	2.791518e+02	-1.209957e+01	0.0	2.799826e+02	-1.010816e+01	0.0	2.813784e+02	-6.649032e+00	0.0	2.821771e+02	-4.402493e+00	0.0	2.836087e+02	-5.243864e+00	0.0	2.857707e+02	-5.984414e+00	0.0	2.874488e+02	-8.023530e+00	0.0	2.871059e+02	-1.252823e+01	0.0	2.882590e+02	-1.501325e+01	0.0	2.880133e+02	-2.022888e+01	0.0	2.862936e+02	-2.570343e+01	0.0	2.859516e+02	-2.828873e+01	0.0	2.830687e+02	-3.389344e+01	0.0	2.819778e+02	-3.689338e+01	0.0	2.795586e+02	-4.197712e+01	0.0	2.744041e+02	-4.739129e+01	0.0	2.706126e+02	-4.814653e+01	0.0	2.660742e+02	-5.001424e+01	0.0	2.598833e+02	-5.075792e+01	0.0	2.549140e+02	-4.773166e+01	0.0	2.504768e+02	-4.442175e+01	0.0	2.445444e+02	-4.063918e+01	0.0	2.421652e+02	-3.166459e+01	0.0	2.396061e+02	-2.546656e+01	0.0	2.379684e+02	-1.528053e+01	0.0	2.419685e+02	-3.375808e+00	0.0	2.458897e+02	2.002395e+00	0.0	2.512330e+02	9.119135e+00	0.0	2.582055e+02	1.183736e+01	0.0	2.643856e+02	1.069538e+01	0.0	2.720060e+02	8.922957e+00	0.0	2.764264e+02	-1.291410e+00	0.0	2.773572e+02	-1.048175e+01	0.0	2.786573e+02	-1.791859e+01	0.0	2.752313e+02	-2.783437e+01	0.0	2.734619e+02	-3.174653e+01	0.0	2.702659e+02	-3.749420e+01	0.0	2.663919e+02	-4.128344e+01	0.0	2.633232e+02	-4.299096e+01	0.0	2.596047e+02	-4.516635e+01	0.0	2.564888e+02	-4.538586e+01	0.0	2.538905e+02	-4.568994e+01	0.0	2.514670e+02	-4.573924e+01	0.0	2.491202e+02	-4.590043e+01	0.0	2.467300e+02	-4.603445e+01	0.0	2.442924e+02	-4.599286e+01	0.0	2.417967e+02	-4.601931e+01	0.0	2.391453e+02	-4.599755e+01	0.0	2.359213e+02	-4.594474e+01	0.0	2.320307e+02	-4.557577e+01	0.0	2.271198e+02	-4.495136e+01	0.0	2.112144e+02	-4.398756e+01	0.0	2.204573e+02	-1.262249e+01	0.0	2.914649e+02	-1.531409e+01	0.0	2.694433e+02	-8.194369e+00	0.0	2.736725e+02	-6.519796e+00	0.0	2.724739e+02	-4.340143e+00	0.0	2.723772e+02	-2.305568e+00	0.0	2.719571e+02	-3.198039e-01	0.0	2.717545e+02	1.610518e+00	0.0	2.716196e+02	3.242621e+00	0.0	2.713869e+02	5.407042e+00	0.0	2.715633e+02	7.175215e+00	0.0	2.716868e+02	9.013299e+00	0.0	2.722361e+02	1.127694e+01	0.0	2.734037e+02	1.217203e+01	0.0	2.739847e+02	1.353429e+01	0.0	2.750546e+02	1.436505e+01	0.0	2.760692e+02	1.426078e+01	0.0	2.766449e+02	1.417271e+01	0.0	2.771762e+02	1.351650e+01	0.0	2.771309e+02	1.207243e+01	0.0	2.762875e+02	1.116426e+01	0.0	2.751353e+02	9.638521e+00	0.0	2.725406e+02	8.285234e+00	0.0	2.687395e+02	9.525239e+00	0.0	2.656179e+02	1.076522e+01	0.0	2.621447e+02	1.369976e+01	0.0	2.595646e+02	1.769498e+01	0.0	2.574379e+02	2.127332e+01	0.0	2.553283e+02	2.713347e+01	0.0	2.548122e+02	3.046886e+01	0.0	2.530048e+02	3.681972e+01	0.0	2.533913e+02	4.306996e+01	0.0	2.543479e+02	4.674522e+01	0.0	2.541605e+02	5.393852e+01	0.0	2.559171e+02	5.736347e+01	0.0	2.555913e+02	6.503167e+01	0.0	2.587073e+02	7.373081e+01	0.0	2.640077e+02	7.749665e+01	0.0	2.665206e+02	8.468772e+01	0.0	2.733135e+02	9.085529e+01	0.0	2.809290e+02	9.314579e+01	0.0	2.877221e+02	9.525782e+01	0.0	2.949881e+02	9.650893e+01	0.0	3.049764e+02	9.161170e+01	0.0	3.102326e+02	8.681327e+01	0.0	3.172802e+02	7.961074e+01	0.0	3.239646e+02	6.712937e+01	0.0	3.220770e+02	6.004334e+01	0.0	3.277454e+02	4.768125e+01	0.0	3.298619e+02	3.701966e+01	0.0	3.288597e+02	3.146549e+01	0.0	3.310298e+02	2.340828e+01	0.0	3.291026e+02	1.994636e+01	0.0	3.288147e+02	1.607103e+01	0.0	3.276725e+02	1.320957e+01	0.0	3.260139e+02	1.255254e+01	0.0	3.251535e+02	1.163805e+01	0.0	3.240315e+02	1.147123e+01	0.0	3.231663e+02	1.155255e+01	0.0	3.225913e+02	1.159206e+01	0.0	3.216907e+02	1.255315e+01	0.0	3.213409e+02	1.363559e+01	0.0	3.215644e+02	1.425664e+01	0.0	3.211734e+02	1.575579e+01	0.0	3.213550e+02	1.645205e+01	0.0	3.206892e+02	1.449370e+01	0.0	3.221617e+02	1.229578e+01	0.0	3.187650e+02	1.109365e+01	0.0	3.165157e+02	6.982705e+00	0.0	3.133704e+02	3.774027e+00	0.0	3.173194e+02	-5.257301e+00	0.0	3.198177e+02	-1.414214e+01	0.0	3.196715e+02	-2.094135e+01	0.0	3.234970e+02	-3.367484e+01	0.0	3.209922e+02	-3.989654e+01	0.0	3.253706e+02	-5.714819e+01	0.0	3.245914e+02	-7.273850e+01	0.0	3.214117e+02	-8.340459e+01	0.0	3.193713e+02	-1.034575e+02	0.0	3.094174e+02	-1.085738e+02	0.0	3.022422e+02	-1.283576e+02	0.0	2.878328e+02	-1.431068e+02	0.0	2.743125e+02	-1.395883e+02	0.0	2.614890e+02	-1.464769e+02	0.0	2.457778e+02	-1.458040e+02	0.0	2.324079e+02	-1.402600e+02	0.0	2.193069e+02	-1.364753e+02	0.0	2.066598e+02	-1.289736e+02	0.0	1.973347e+02	-1.182483e+02	0.0	1.894457e+02	-1.097821e+02	0.0	1.824822e+02	-1.010693e+02	0.0	1.771873e+02	-9.301624e+01	0.0	1.699139e+02	-8.896205e+01	0.0	1.600219e+02	-8.556621e+01	0.0	1.438882e+02	-8.384979e+01	0.0	1.180480e+02	-7.864399e+01	0.0	8.375744e+01	-6.309486e+01	0.0	4.702464e+01	-3.701205e+01	0.0	-3.332415e+01	3.018389e+01	0.0	
SCALARS Energy double 1
LOOKUP_TABLE default
3.377950e+05	2.582716e+05	2.701370e+05	2.609568e+05	2.572640e+05	2.535270e+05	2.531827e+05	2.523008e+05	2.550166e+05	2.579963e+05	2.624080e+05	2.664932e+05	2.702291e+05	2.736680e+05	2.760113e+05	2.764256e+05	2.765061e+05	2.750246e+05	2.733304e+05	2.702028e+05	2.656917e+05	2.595390e+05	2.542296e+05	2.467642e+05	2.388302e+05	2.337916e+05	2.212312e+05	2.116692e+05	2.042737e+05	1.917844e+05	1.877196e+05	1.765112e+05	1.656035e+05	1.610372e+05	1.516407e+05	1.468574e+05	1.390990e+05	1.310449e+05	1.290609e+05	1.264973e+05	1.245107e+05	1.277591e+05	1.293494e+05	1.348953e+05	1.429794e+05	1.677603e+05	2.351746e+05	2.732022e+05	2.683156e+05	2.653900e+05	2.633796e+05	2.607706e+05	2.591723e+05	2.572692e+05	2.551177e+05	2.552702e+05	2.538813e+05	2.540182e+05	2.560754e+05	2.559250e+05	2.585318e+05	2.599176e+05	2.621861e+05	2.668794e+05	2.694300e+05	2.726128e+05	2.767054e+05	2.793388e+05	2.814012e+05	2.850404e+05	2.851553e+05	2.863424e+05	2.864431e+05	2.827168e+05	2.810066e+05	2.767454e+05	2.720847e+05	2.686711e+05	2.631110e+05	2.616158e+05	2.621985e+05	2.617357e+05	2.650745e+05	2.660219e+05	2.684173e+05	2.710397e+05	2.725112e+05	2.748182e+05	2.762424e+05	2.776187e+05	2.788302e+05	2.800370e+05	2.812758e+05	2.824684e+05	2.837889e+05	2.851294e+05	2.868487e+05	2.895690e+05	2.900027e+05	2.944076e+05	3.182682e+05	3.076684e+05	3.101715e+05	3.098363e+05	3.101774e+05	3.102473e+05	3.102682e+05	3.105209e+05	3.103577e+05	3.103567e+05	3.103375e+05	3.096201e+05	3.095217e+05	3.089676e+05	3.083121e+05	3.080063e+05	3.075778e+05	3.072776e+05	3.076267e+05	3.078030e+05	3.085762e+05	3.104118e+05	3.115424e+05	3.132832e+05	3.146367e+05	3.154377e+05	3.168344e+05	3.162749e+05	3.175776e+05	3.173712e+05	3.163466e+05	3.170134e+05	3.147019e+05	3.152624e+05	3.139234e+05	3.104436e+05	3.092683e+05	3.052970e+05	3.001704e+05	2.954945e+05	2.894356e+05	2.803551e+05	2.738769e+05	2.637768e+05	2.530945e+05	2.440497e+05	2.314906e+05	2.312294e+05	2.359722e+05	2.392300e+05	2.461224e+05	2.501086e+05	2.545927e+05	2.588507e+05	2.614725e+05	2.639071e+05	2.655193e+05	2.666929e+05	2.680016e+05	2.684459e+05	2.682937e+05	2.680403e+05	2.664552e+05	2.657070e+05	2.641139e+05	2.554085e+05	2.221391e+05	1.983369e+05	1.923364e+05	1.965335e+05	2.016341e+05	2.032274e+05	2.092019e+05	2.104480e+05	2.204783e+05	2.316308e+05	2.386495e+05	2.525966e+05	2.553957e+05	2.680181e+05	2.845272e+05	2.898985e+05	3.001115e+05	3.086837e+05	3.143265e+05	3.208913e+05	3.266378e+05	3.301060e+05	3.334526e+05	3.361876e+05	3.373275e+05	3.392503e+05	3.406551e+05	3.434678e+05	3.474531e+05	3.529372e+05	3.515357e+05	3.706192e+05	
SCALARS Pressure double 1
LOOKUP_TABLE default
1.291820e+05	9.295637e+04	9.705875e+04	9.163594e+04	8.861953e+04	8.633533e+04	8.553300e+04	8.504287e+04	8.617399e+04	8.764487e+04	8.995883e+04	9.208933e+04	9.413896e+04	9.582855e+04	9.689746e+04	9.715805e+04	9.700315e+04	9.605866e+04	9.483165e+04	9.295980e+04	9.033699e+04	8.702013e+04	8.399873e+04	7.992982e+04	7.596290e+04	7.299648e+04	6.699794e+04	6.247055e+04	5.876462e+04	5.358407e+04	5.147200e+04	4.679975e+04	4.252041e+04	4.040406e+04	3.697273e+04	3.506298e+04	3.218427e+04	2.952634e+04	2.873822e+04	2.784681e+04	2.732254e+04	2.815131e+04	2.902989e+04	3.035613e+04	3.416157e+04	4.670229e+04	7.851625e+04	9.645652e+04	9.417801e+04	9.272394e+04	9.173357e+04	9.039543e+04	8.943824e+04	8.838115e+04	8.740647e+04	8.734149e+04	8.668995e+04	8.689055e+04	8.785252e+04	8.802122e+04	8.929452e+04	9.010348e+04	9.156409e+04	9.404141e+04	9.557865e+04	9.754318e+04	9.983589e+04	1.014155e+05	1.028493e+05	1.047239e+05	1.050267e+05	1.057306e+05	1.055050e+05	1.035823e+05	1.023931e+05	9.992811e+04	9.732545e+04	9.510527e+04	9.218518e+04	9.139530e+04	9.149350e+04	9.154085e+04	9.318431e+04	9.384679e+04	9.523290e+04	9.666017e+04	9.761331e+04	9.890381e+04	9.974977e+04	1.005583e+05	1.012816e+05	1.020024e+05	1.027393e+05	1.034552e+05	1.042349e+05	1.050617e+05	1.060990e+05	1.076330e+05	1.089161e+05	1.104498e+05	1.153791e+05	1.125675e+05	1.133237e+05	1.132773e+05	1.134359e+05	1.135007e+05	1.135256e+05	1.136454e+05	1.135901e+05	1.135722e+05	1.135497e+05	1.131861e+05	1.130462e+05	1.127521e+05	1.123752e+05	1.121589e+05	1.119243e+05	1.117517e+05	1.119139e+05	1.120636e+05	1.125009e+05	1.135156e+05	1.143062e+05	1.153010e+05	1.161417e+05	1.166634e+05	1.174031e+05	1.172763e+05	1.178470e+05	1.178281e+05	1.172881e+05	1.174586e+05	1.163717e+05	1.164299e+05	1.157395e+05	1.138204e+05	1.128163e+05	1.107036e+05	1.077189e+05	1.049138e+05	1.015068e+05	9.662564e+04	9.275654e+04	8.757520e+04	8.183856e+04	7.691180e+04	7.105316e+04	7.041071e+04	7.271580e+04	7.457357e+04	7.780504e+04	8.005077e+04	8.230350e+04	8.452254e+04	8.598738e+04	8.725819e+04	8.815886e+04	8.881659e+04	8.950262e+04	8.981198e+04	8.977520e+04	8.962679e+04	8.891427e+04	8.853492e+04	8.786789e+04	8.354331e+04	6.752988e+04	5.534340e+04	5.258493e+04	5.422419e+04	5.655114e+04	5.737856e+04	5.980256e+04	6.075337e+04	6.497716e+04	7.040737e+04	7.404868e+04	8.049356e+04	8.285549e+04	8.886122e+04	9.738254e+04	1.012535e+05	1.066340e+05	1.116769e+05	1.153165e+05	1.191497e+05	1.226347e+05	1.249809e+05	1.270596e+05	1.287925e+05	1.297245e+05	1.309497e+05	1.320320e+05	1.338590e+05	1.364566e+05	1.398198e+05	1.401720e+05	1.480110e+05	
SCALARS Temperature double 1
LOOKUP_TABLE default
2.925814e+02	2.799176e+02	2.795614e+02	2.748734e+02	2.709816e+02	2.686741e+02	2.670783e+02	2.666279e+02	2.671280e+02	2.681892e+02	2.700157e+02	2.716192e+02	2.732557e+02	2.742993e+02	2.748210e+02	2.750624e+02	2.746785e+02	2.737823e+02	2.724297e+02	2.707287e+02	2.683619e+02	2.655722e+02	2.626655e+02	2.587664e+02	2.552210e+02	2.516539e+02	2.458463e+02	2.410147e+02	2.362855e+02	2.309708e+02	2.275964e+02	2.216530e+02	2.160805e+02	2.121372e+02	2.073237e+02	2.038486e+02	1.987325e+02	1.944831e+02	1.926174e+02	1.908207e+02	1.903244e+02	1.909694e+02	1.938596e+02	1.942859e+02	2.039666e+02	2.303174e+02	2.647268e+02	2.759757e+02	2.747827e+02	2.738488e+02	2.732132e+02	2.722539e+02	2.713457e+02	2.704350e+02	2.698936e+02	2.696241e+02	2.692160e+02	2.695719e+02	2.701637e+02	2.706681e+02	2.715205e+02	2.722623e+02	2.737592e+02	2.755798e+02	2.769478e+02	2.787099e+02	2.804234e+02	2.817084e+02	2.830917e+02	2.841736e+02	2.846904e+02	2.852160e+02	2.846982e+02	2.835973e+02	2.824614e+02	2.805839e+02	2.786492e+02	2.765097e+02	2.744168e+02	2.738266e+02	2.735931e+02	2.740566e+02	2.750972e+02	2.758135e+02	2.769768e+02	2.780317e+02	2.789340e+02	2.799011e+02	2.805907e+02	2.812308e+02	2.818119e+02	2.823856e+02	2.829623e+02	2.835248e+02	2.841154e+02	2.847785e+02	2.855728e+02	2.865988e+02	2.887670e+02	2.885381e+02	2.814043e+02	2.833088e+02	2.830170e+02	2.831563e+02	2.832181e+02	2.832899e+02	2.833214e+02	2.833712e+02	2.833793e+02	2.833475e+02	2.833191e+02	2.831340e+02	2.829435e+02	2.827749e+02	2.825213e+02	2.823279e+02	2.821827e+02	2.820655e+02	2.821306e+02	2.822887e+02	2.825755e+02	2.832072e+02	2.838929e+02	2.845360e+02	2.851507e+02	2.855547e+02	2.859515e+02	2.860948e+02	2.862502e+02	2.863525e+02	2.860685e+02	2.859323e+02	2.855198e+02	2.852531e+02	2.849010e+02	2.837423e+02	2.826913e+02	2.814545e+02	2.793122e+02	2.771213e+02	2.746140e+02	2.710899e+02	2.675794e+02	2.636203e+02	2.584284e+02	2.534429e+02	2.483907e+02	2.468822e+02	2.491434e+02	2.513433e+02	2.540389e+02	2.564378e+02	2.583820e+02	2.603433e+02	2.617401e+02	2.628057e+02	2.636319e+02	2.642306e+02	2.647859e+02	2.651421e+02	2.651734e+02	2.650324e+02	2.646254e+02	2.643351e+02	2.640282e+02	2.606837e+02	2.465666e+02	2.307381e+02	2.270779e+02	2.287067e+02	2.316595e+02	2.328657e+02	2.351259e+02	2.369293e+02	2.407479e+02	2.465452e+02	2.504564e+02	2.555875e+02	2.590730e+02	2.633486e+02	2.696873e+02	2.737818e+02	2.772766e+02	2.809839e+02	2.838730e+02	2.863783e+02	2.886980e+02	2.904622e+02	2.918144e+02	2.929520e+02	2.937629e+02	2.945521e+02	2.954240e+02	2.966005e+02	2.982430e+02	3.001070e+02	3.015050e+02	3.018397e+02	
SCALARS Mach double 1
LOOKUP_TABLE default
4.051035e-01	6.306662e-01	6.360950e-01	7.048362e-01	7.587738e-01	7.896997e-01	8.106956e-01	8.165678e-01	8.100457e-01	7.961113e-01	7.718054e-01	7.501001e-01	7.275540e-01	7.129500e-01	7.055785e-01	7.021519e-01	7.075977e-01	7.202088e-01	7.389862e-01	7.621990e-01	7.938310e-01	8.302468e-01	8.673345e-01	9.159383e-01	9.591945e-01	1.001983e+00	1.070421e+00	1.126501e+00	1.180880e+00	1.241618e+00	1.280080e+00	1.347817e+00	1.411525e+00	1.456840e+00	1.512529e+00	1.553056e+00	1.613318e+00	1.664005e+00	1.686465e+00	1.708221e+00	1.714255e+00	1.706417e+00	1.671497e+00	1.666373e+00	1.551675e+00	1.249069e+00	8.411167e-01	6.890848e-01	7.061222e-01	7.192773e-01	7.281450e-01	7.414043e-01	7.538275e-01	7.661647e-01	7.734438e-01	7.770531e-01	7.824989e-01	7.777507e-01	7.698168e-01	7.630181e-01	7.514463e-01	7.412889e-01	7.205313e-01	6.947690e-01	6.749968e-01	6.489448e-01	6.228995e-01	6.028488e-01	5.807061e-01	5.629374e-01	5.542995e-01	5.454060e-01	5.541676e-01	5.724544e-01	5.908704e-01	6.204202e-01	6.498544e-01	6.813706e-01	7.112942e-01	7.195883e-01	7.228523e-01	7.163634e-01	7.016571e-01	6.914169e-01	6.745745e-01	6.590550e-01	6.455805e-01	6.309187e-01	6.203158e-01	6.103559e-01	6.012130e-01	5.920852e-01	5.828032e-01	5.736420e-01	5.639043e-01	5.528160e-01	5.393039e-01	5.214482e-01	4.819987e-01	4.862868e-01	6.076365e-01	5.771729e-01	5.819164e-01	5.796567e-01	5.786516e-01	5.774821e-01	5.769671e-01	5.761546e-01	5.760228e-01	5.765420e-01	5.770058e-01	5.800181e-01	5.831080e-01	5.858306e-01	5.899110e-01	5.930082e-01	5.953242e-01	5.971913e-01	5.961541e-01	5.936335e-01	5.890400e-01	5.788275e-01	5.675873e-01	5.568908e-01	5.465164e-01	5.396141e-01	5.327676e-01	5.302774e-01	5.275675e-01	5.257774e-01	5.307359e-01	5.331006e-01	5.402137e-01	5.447731e-01	5.507489e-01	5.700713e-01	5.871780e-01	6.068493e-01	6.398746e-01	6.724627e-01	7.085093e-01	7.573042e-01	8.041344e-01	8.552392e-01	9.200982e-01	9.806060e-01	1.040599e+00	1.058307e+00	1.031732e+00	1.005678e+00	9.734492e-01	9.444387e-01	9.206679e-01	8.964252e-01	8.789799e-01	8.655626e-01	8.550924e-01	8.474647e-01	8.403598e-01	8.357855e-01	8.353838e-01	8.371955e-01	8.424161e-01	8.461299e-01	8.500474e-01	8.921874e-01	1.062002e+00	1.244273e+00	1.285986e+00	1.267428e+00	1.233762e+00	1.219994e+00	1.194158e+00	1.173500e+00	1.129581e+00	1.062252e+00	1.016207e+00	9.547602e-01	9.121584e-01	8.586888e-01	7.762069e-01	7.202148e-01	6.701887e-01	6.142111e-01	5.679167e-01	5.253262e-01	4.832946e-01	4.492072e-01	4.215253e-01	3.969601e-01	3.786033e-01	3.599420e-01	3.382602e-01	3.068106e-01	2.570560e-01	1.860428e-01	1.061504e-01	7.557165e-02	
SCALARS Pressure_Coefficient double 1
LOOKUP_TABLE default