# vtk DataFile Version 3.0
vtk output
ASCII
DATASET UNSTRUCTURED_GRID
POINTS 1820 double
1.000000e+02	0.000000e+00	0.0	9.917900e+01	1.278772e+01	0.0	9.672949e+01	2.536546e+01	0.0	9.269168e+01	3.752670e+01	0.0	8.713187e+01	4.907176e+01	0.0	8.014136e+01	5.981105e+01	0.0	7.183494e+01	6.956826e+01	0.0	6.234898e+01	7.818315e+01	0.0	5.183926e+01	8.551428e+01	0.0	4.047833e+01	9.144126e+01	0.0	2.845276e+01	9.586679e+01	0.0	1.595999e+01	9.871818e+01	0.0	3.205158e+00	9.994862e+01	0.0	-9.602303e+00	9.953791e+01	0.0	-2.225209e+01	9.749279e+01	0.0	-3.453651e+01	9.384684e+01	0.0	-4.625383e+01	8.865993e+01	0.0	-5.721167e+01	8.201723e+01	0.0	-6.723009e+01	7.402780e+01	0.0	-7.614460e+01	6.482284e+01	0.0	-8.380881e+01	5.455349e+01	0.0	-9.009689e+01	4.338837e+01	0.0	-9.490557e+01	3.151082e+01	0.0	-9.815592e+01	1.911586e+01	0.0	-9.979454e+01	6.407022e+00	0.0	-9.979454e+01	-6.407022e+00	0.0	-9.815592e+01	-1.911586e+01	0.0	-9.490557e+01	-3.151082e+01	0.0	-9.009689e+01	-4.338837e+01	0.0	-8.380881e+01	-5.455349e+01	0.0	-7.614460e+01	-6.482284e+01	0.0	-6.723009e+01	-7.402780e+01	0.0	-5.721167e+01	-8.201723e+01	0.0	-4.625383e+01	-8.865993e+01	0.0	-3.453651e+01	-9.384684e+01	0.0	-2.225209e+01	-9.749279e+01	0.0	-9.602303e+00	-9.953791e+01	0.0	3.205158e+00	-9.994862e+01	0.0	1.595999e+01	-9.871818e+01	0.0	2.845276e+01	-9.586679e+01	0.0	4.047833e+01	-9.144126e+01	0.0	5.183926e+01	-8.551428e+01	0.0	6.234898e+01	-7.818315e+01	0.0	7.183494e+01	-6.956826e+01	0.0	8.014136e+01	-5.981105e+01	0.0	8.713187e+01	-4.907176e+01	0.0	9.269168e+01	-3.752670e+01	0.0	9.672949e+01	-2.536546e+01	0.0	9.917900e+01	-1.278772e+01	0.0	0.000000e+00	0.000000e+00	0.0	3.304452e-03	3.752412e-03	0.0	6.841282e-03	7.524845e-03	0.0	1.126555e-02	1.058880e-02	0.0	1.592020e-02	1.365166e-02	0.0	2.110074e-02	1.622244e-02	0.0	2.650187e-02	1.880880e-02	0.0	3.228022e-02	2.106870e-02	0.0	3.829827e-02	2.330005e-02	0.0	4.466924e-02	2.518670e-02	0.0	5.132342e-02	2.685572e-02	0.0	5.832074e-02	2.806932e-02	0.0	6.561595e-02	2.863008e-02	0.0	7.318934e-02	2.878169e-02	0.0	8.094405e-02	2.781149e-02	0.0	8.892220e-02	2.666498e-02	0.0	9.711270e-02	2.526327e-02	0.0	1.055916e-01	2.410938e-02	0.0	1.143439e-01	2.308377e-02	0.0	1.233931e-01	2.271158e-02	0.0	1.327132e-01	2.257665e-02	0.0	1.422681e-01	2.300055e-02	0.0	1.520617e-01	2.387676e-02	0.0	1.620868e-01	2.494051e-02	0.0	1.722451e-01	2.688596e-02	0.0	1.826519e-01	2.887901e-02	0.0	1.931446e-01	3.157554e-02	0.0	2.037741e-01	3.475508e-02	0.0	2.146379e-01	3.800470e-02	0.0	2.254785e-01	4.207284e-02	0.0	2.365289e-01	4.625489e-02	0.0	2.477939e-01	5.051986e-02	0.0	2.592665e-01	5.486846e-02	0.0	2.709416e-01	5.929387e-02	0.0	2.829659e-01	6.334415e-02	0.0	2.952967e-01	6.711753e-02	0.0	3.078107e-01	7.094693e-02	0.0	3.208616e-01	7.331904e-02	0.0	3.340958e-01	7.565982e-02	0.0	3.475727e-01	7.726603e-02	0.0	3.613057e-01	7.791221e-02	0.0	3.751746e-01	7.856478e-02	0.0	3.891492e-01	7.765165e-02	0.0	4.032329e-01	7.667179e-02	0.0	4.173257e-01	7.497005e-02	0.0	4.314102e-01	7.251901e-02	0.0	4.455614e-01	7.005636e-02	0.0	4.595891e-01	6.672976e-02	0.0	4.736530e-01	6.339069e-02	0.0	4.877468e-01	6.007899e-02	0.0	5.018566e-01	5.680226e-02	0.0	5.159590e-01	5.352725e-02	0.0	5.302270e-01	5.122192e-02	0.0	5.444677e-01	4.897511e-02	0.0	5.587313e-01	4.750409e-02	0.0	5.730167e-01	4.695020e-02	0.0	5.872201e-01	4.639950e-02	0.0	6.013209e-01	4.707422e-02	0.0	6.153118e-01	4.775986e-02	0.0	6.291590e-01	4.873198e-02	0.0	6.428505e-01	4.997873e-02	0.0	6.563943e-01	5.121173e-02	0.0	6.697833e-01	5.237684e-02	0.0	6.830018e-01	5.352710e-02	0.0	6.960554e-01	5.442563e-02	0.0	7.089346e-01	5.507034e-02	0.0	7.216134e-01	5.570503e-02	0.0	7.340977e-01	5.552071e-02	0.0	7.463653e-01	5.533612e-02	0.0	7.583650e-01	5.448595e-02	0.0	7.700994e-01	5.310533e-02	0.0	7.815568e-01	5.151079e-02	0.0	7.925800e-01	4.885144e-02	0.0	8.033654e-01	4.624944e-02	0.0	8.137176e-01	4.302295e-02	0.0	8.238027e-01	3.977244e-02	0.0	8.336267e-01	3.653810e-02	0.0	8.431939e-01	3.333755e-02	0.0	8.525518e-01	3.032602e-02	0.0	8.617773e-01	2.775580e-02	0.0	8.707565e-01	2.525421e-02	0.0	8.795842e-01	2.319832e-02	0.0	8.881871e-01	2.128951e-02	0.0	8.965611e-01	1.952046e-02	0.0	9.047275e-01	1.798457e-02	0.0	9.126504e-01	1.649449e-02	0.0	9.203437e-01	1.511079e-02	0.0	9.278016e-01	1.378448e-02	0.0	9.350228e-01	1.248956e-02	0.0	9.420096e-01	1.121672e-02	0.0	9.487694e-01	9.985039e-03	0.0	9.553005e-01	8.763480e-03	0.0	9.616133e-01	7.582774e-03	0.0	9.677080e-01	6.420321e-03	0.0	9.735927e-01	5.293816e-03	0.0	9.792691e-01	4.186806e-03	0.0	9.847444e-01	3.110899e-03	0.0	9.900222e-01	2.058975e-03	0.0	9.951065e-01	1.025742e-03	0.0	1.000000e+00	0.000000e+00	0.0	9.950047e-01	2.152357e-04	0.0	9.898204e-01	4.151777e-04	0.0	9.844413e-01	5.648153e-04	0.0	9.788630e-01	6.693691e-04	0.0	9.730812e-01	7.491994e-04	0.0	9.670908e-01	7.701998e-04	0.0	9.608879e-01	7.679482e-04	0.0	9.544677e-01	6.994092e-04	0.0	9.478260e-01	6.142779e-04	0.0	9.409597e-01	4.324851e-04	0.0	9.338632e-01	2.445943e-04	0.0	9.265363e-01	-5.990150e-05	0.0	9.189724e-01	-3.989543e-04	0.0	9.111759e-01	-8.769640e-04	0.0	9.031492e-01	-1.581584e-03	0.0	8.948762e-01	-2.307837e-03	0.0	8.864339e-01	-3.672468e-03	0.0	8.777534e-01	-5.156605e-03	0.0	8.689217e-01	-7.108118e-03	0.0	8.599888e-01	-9.746943e-03	0.0	8.508111e-01	-1.245808e-02	0.0	8.417300e-01	-1.620280e-02	0.0	8.324282e-01	-2.008697e-02	0.0	8.228766e-01	-2.403188e-02	0.0	8.130784e-01	-2.804109e-02	0.0	8.029751e-01	-3.192758e-02	0.0	7.922675e-01	-3.479354e-02	0.0	7.813241e-01	-3.772260e-02	0.0	7.698281e-01	-3.864380e-02	0.0	7.580372e-01	-3.918838e-02	0.0	7.460406e-01	-3.888690e-02	0.0	7.338471e-01	-3.765091e-02	0.0	7.214393e-01	-3.638634e-02	0.0	7.088666e-01	-3.473497e-02	0.0	6.960955e-01	-3.305753e-02	0.0	6.830931e-01	-3.178384e-02	0.0	6.698680e-01	-3.092471e-02	0.0	6.564725e-01	-3.005450e-02	0.0	6.429075e-01	-3.074207e-02	0.0	6.291946e-01	-3.145487e-02	0.0	6.154199e-01	-3.288249e-02	0.0	6.015994e-01	-3.505580e-02	0.0	5.876706e-01	-3.724615e-02	0.0	5.738856e-01	-4.063358e-02	0.0	5.600256e-01	-4.406342e-02	0.0	5.462095e-01	-4.789761e-02	0.0	5.324842e-01	-5.224835e-02	0.0	5.187228e-01	-5.661053e-02	0.0	5.049707e-01	-6.107608e-02	0.0	4.912167e-01	-6.556070e-02	0.0	4.774056e-01	-6.982387e-02	0.0	4.634380e-01	-7.347210e-02	0.0	4.495070e-01	-7.711076e-02	0.0	4.353691e-01	-7.938777e-02	0.0	4.211981e-01	-8.113253e-02	0.0	4.070851e-01	-8.235376e-02	0.0	3.929921e-01	-8.190710e-02	0.0	3.790089e-01	-8.146391e-02	0.0	3.652480e-01	-7.987690e-02	0.0	3.516529e-01	-7.794645e-02	0.0	3.382392e-01	-7.583481e-02	0.0	3.250861e-01	-7.315320e-02	0.0	3.121003e-01	-7.050570e-02	0.0	2.993250e-01	-6.773963e-02	0.0	2.867500e-01	-6.494974e-02	0.0	2.743684e-01	-6.221190e-02	0.0	2.621782e-01	-5.957487e-02	0.0	2.501992e-01	-5.698355e-02	0.0	2.384047e-01	-5.460542e-02	0.0	2.268079e-01	-5.240678e-02	0.0	2.154419e-01	-5.025191e-02	0.0	2.042268e-01	-4.865500e-02	0.0	1.932505e-01	-4.710973e-02	0.0	1.824979e-01	-4.577740e-02	0.0	1.719616e-01	-4.474547e-02	0.0	1.616765e-01	-4.373816e-02	0.0	1.516343e-01	-4.286577e-02	0.0	1.418441e-01	-4.203681e-02	0.0	1.323145e-01	-4.116669e-02	0.0	1.230537e-01	-4.016821e-02	0.0	1.140460e-01	-3.919701e-02	0.0	1.053350e-01	-3.791714e-02	0.0	9.688678e-02	-3.657214e-02	0.0	8.870490e-02	-3.515929e-02	0.0	8.081724e-02	-3.351369e-02	0.0	7.316901e-02	-3.191804e-02	0.0	6.581747e-02	-3.010960e-02	0.0	5.870601e-02	-2.831913e-02	0.0	5.186168e-02	-2.643867e-02	0.0	4.526533e-02	-2.452389e-02	0.0	3.894067e-02	-2.250066e-02	0.0	3.287074e-02	-2.040811e-02	0.0	2.712459e-02	-1.808083e-02	0.0	2.162911e-02	-1.569845e-02	0.0	1.656538e-02	-1.290648e-02	0.0	1.179678e-02	-1.002249e-02	0.0	7.361283e-03	-6.975540e-03	0.0	3.364140e-03	-3.671974e-03	0.0	3.739202e+00	2.667308e+00	0.0	2.261599e+00	2.784368e+00	0.0	2.893476e+00	1.742303e+00	0.0	8.738263e+01	1.777111e+01	0.0	8.016390e+01	-1.075949e+01	0.0	7.730205e+01	-2.173599e+01	0.0	8.816572e+01	-1.707462e+01	0.0	8.866093e+01	-5.719695e+00	0.0	2.710360e+01	2.375324e+01	0.0	3.792045e+01	2.742161e+01	0.0	2.956573e+01	3.454660e+01	0.0	8.212245e+01	3.549178e+01	0.0	7.310245e+01	3.361774e+01	0.0	7.671541e+01	2.430150e+01	0.0	6.715094e+01	-3.309358e+01	0.0	7.562481e+01	-4.282959e+01	0.0	8.139839e+01	-3.517564e+01	0.0	8.725746e+01	-2.737568e+01	0.0	4.839474e+01	3.041075e+01	0.0	5.756457e+01	3.266812e+01	0.0	5.367170e+01	4.023567e+01	0.0	5.545907e+01	-5.359696e+01	0.0	6.212233e+01	-5.999472e+01	0.0	6.558590e+01	-5.446945e+01	0.0	6.899862e+01	5.968910e+01	0.0	7.295773e+01	5.052303e+01	0.0	6.004809e+01	6.476430e+01	0.0	4.823613e+01	-6.498255e+01	0.0	4.562388e+01	-7.456813e+01	0.0	5.452967e+01	-7.241230e+01	0.0	6.623949e+01	-4.598036e+01	0.0	4.865982e+01	7.156220e+01	0.0	3.664948e+01	5.463325e+01	0.0	3.136870e+01	6.287727e+01	0.0	2.638381e+01	5.284524e+01	0.0	5.647506e+01	-6.375628e+01	0.0	2.859142e+01	7.459733e+01	0.0	3.993629e+01	7.981607e+01	0.0	3.250085e+01	8.530666e+01	0.0	3.745405e+01	-6.942677e+01	0.0	2.418285e+01	-7.602233e+01	0.0	3.773664e+01	-8.072768e+01	0.0	5.680330e+00	4.733141e+01	0.0	-4.560944e+00	4.378287e+01	0.0	4.249960e+00	3.717761e+01	0.0	8.813895e-01	-5.123158e-02	0.0	8.632056e-01	-5.441355e-02	0.0	8.726854e-01	-7.199927e-02	0.0	2.463043e-01	7.230646e-02	0.0	2.438761e-01	6.094106e-02	0.0	2.528200e-01	6.194850e-02	0.0	1.656806e-01	4.016523e-02	0.0	1.747389e-01	3.556471e-02	0.0	1.758350e-01	4.745633e-02	0.0	5.232420e-01	-7.610499e-02	0.0	5.245669e-01	-6.415975e-02	0.0	5.137131e-01	-6.813269e-02	0.0	5.353646e-01	-6.751935e-02	0.0	9.441702e-01	3.257909e-02	0.0	9.356235e-01	2.772675e-02	0.0	9.442016e-01	2.384669e-02	0.0	9.091749e-01	2.289864e-02	0.0	9.037120e-01	2.365150e-02	0.0	9.318526e-01	1.731789e-02	0.0	9.381907e-01	1.890442e-02	0.0	9.315257e-01	2.185036e-02	0.0	1.157673e-01	-5.395178e-02	0.0	1.135269e-01	-4.626311e-02	0.0	1.086706e-01	-4.856535e-02	0.0	1.621914e-01	5.154773e-02	0.0	2.164458e-01	8.065677e-02	0.0	2.087922e-01	6.753694e-02	0.0	2.214437e-01	6.456360e-02	0.0	1.831196e-01	5.804120e-02	0.0	1.891453e-01	4.794087e-02	0.0	1.964058e-01	6.068105e-02	0.0	1.709365e-01	6.253256e-02	0.0	2.103992e-01	5.449119e-02	
[...]
POINT_DATA 1820

SCALARS Density double 1
LOOKUP_TABLE default
1.291163e+00	1.291315e+00	1.291942e+00	1.292271e+00	1.292184e+00	1.292118e+00	1.292121e+00	1.292107e+00	1.292080e+00	1.292059e+00	1.292046e+00	1.292048e+00	1.292066e+00	1.292104e+00	1.292156e+00	1.292203e+00	1.292246e+00	1.292274e+00	1.292296e+00	1.292309e+00	1.292319e+00	1.292326e+00	1.292331e+00	1.292335e+00	1.292340e+00	1.292345e+00	1.292351e+00	1.292360e+00	1.292370e+00	1.292385e+00	1.292403e+00	1.292426e+00	1.292453e+00	1.292489e+00	1.292526e+00	1.292562e+00	1.292600e+00	1.292622e+00	1.292617e+00	1.292591e+00	1.292552e+00	1.292502e+00	1.292457e+00	1.292411e+00	1.292355e+00	1.292335e+00	1.292387e+00	1.292250e+00	1.291688e+00	1.584517e+00	1.261155e+00	1.272573e+00	1.185319e+00	1.145448e+00	1.105393e+00	1.078224e+00	1.034091e+00	9.866875e-01	9.205628e-01	8.473773e-01	7.423700e-01	6.580465e-01	6.298446e-01	7.900940e-01	1.148992e+00	1.243670e+00	1.281822e+00	1.299134e+00	1.312340e+00	1.317554e+00	1.326114e+00	1.324996e+00	1.331026e+00	1.328037e+00	1.322440e+00	1.323237e+00	1.307634e+00	1.300614e+00	1.285605e+00	1.251936e+00	1.224754e+00	1.191333e+00	1.140841e+00	1.085921e+00	1.044803e+00	9.509251e-01	8.749625e-01	8.402568e-01	7.686304e-01	7.256073e-01	6.634861e-01	5.973506e-01	5.732312e-01	5.258411e-01	4.995892e-01	4.733247e-01	4.510734e-01	5.488767e-01	8.599380e-01	1.073941e+00	1.118383e+00	1.136829e+00	1.134795e+00	1.148607e+00	1.143821e+00	1.145580e+00	1.143398e+00	1.132412e+00	1.127372e+00	1.114948e+00	1.101326e+00	1.088220e+00	1.073460e+00	1.055529e+00	1.044917e+00	1.023694e+00	1.013621e+00	1.010228e+00	1.000787e+00	1.016441e+00	1.023325e+00	1.049080e+00	1.079454e+00	1.098743e+00	1.126023e+00	1.141696e+00	1.154790e+00	1.167272e+00	1.172524e+00	1.177379e+00	1.182245e+00	1.183286e+00	1.186636e+00	1.188144e+00	1.189117e+00	1.191226e+00	1.192417e+00	1.193969e+00	1.195374e+00	1.196962e+00	1.198233e+00	1.199948e+00	1.201509e+00	1.202939e+00	1.204928e+00	1.204169e+00	1.211946e+00	1.193843e+00	1.212238e+00	1.304438e+00	1.270170e+00	1.273169e+00	1.278525e+00	1.279997e+00	1.282048e+00	1.284167e+00	1.286404e+00	1.288130e+00	1.290518e+00	1.292653e+00	1.294423e+00	1.298569e+00	1.297934e+00	1.302887e+00	1.303768e+00	1.300771e+00	1.305587e+00	1.296677e+00	1.294271e+00	1.287555e+00	1.264733e+00	1.245175e+00	1.216133e+00	1.162489e+00	1.123828e+00	1.049914e+00	1.008679e+00	1.034331e+00	1.048990e+00	1.102289e+00	1.150174e+00	1.182641e+00	1.219309e+00	1.244455e+00	1.254221e+00	1.274064e+00	1.279301e+00	1.277298e+00	1.283585e+00	1.275111e+00	1.275994e+00	1.271146e+00	1.258366e+00	1.252471e+00	1.236426e+00	1.216192e+00	1.196198e+00	1.147733e+00	8.961362e-01	6.208022e-01	5.445160e-01	5.813102e-01	6.551601e-01	6.973439e-01	7.897902e-01	8.727190e-01	9.380212e-01	1.022405e+00	1.062998e+00	1.117572e+00	1.170305e+00	1.203021e+00	1.238023e+00	1.265530e+00	1.286771e+00	1.308511e+00	1.327388e+00	1.336595e+00	1.357669e+00	1.365029e+00	1.361771e+00	1.369580e+00	1.363385e+00	1.355350e+00	1.349836e+00	1.336923e+00	1.323348e+00	1.316729e+00	1.303256e+00	1.296065e+00	1.303800e+00	1.303089e+00	1.313880e+00	1.322724e+00	1.333021e+00	1.350241e+00	1.361344e+00	1.375514e+00	1.388621e+00	1.401827e+00	1.423345e+00	1.441873e+00	1.475568e+00	1.517629e+00	1.555349e+00	1.588324e+00	1.673938e+00	1.290131e+00	1.284429e+00	1.293228e+00	1.291736e+00	1.291855e+00	1.292188e+00	1.292018e+00	1.291574e+00	1.291988e+00	1.292070e+00	1.291880e+00	1.292158e+00	1.292171e+00	1.292017e+00	1.292329e+00	1.292317e+00	1.292288e+00	1.292235e+00	1.292083e+00	1.292113e+00	1.292029e+00	1.292388e+00	1.292396e+00	1.292368e+00	1.292096e+00	1.292099e+00	1.292080e+00	1.292462e+00	1.292499e+00	1.292462e+00	1.292324e+00	1.292053e+00	1.291966e+00	1.291962e+00	1.291890e+00	1.292426e+00	1.291989e+00	1.292038e+00	1.292028e+00	1.292526e+00	1.292595e+00	1.292543e+00	1.291722e+00	1.291753e+00	1.291583e+00	1.320967e+00	1.306109e+00	1.314731e+00	1.244610e+00	1.246959e+00	1.218073e+00	1.349595e+00	1.339736e+00	1.350959e+00	1.219676e+00	1.214128e+00	1.185607e+00	1.238219e+00	1.210596e+00	1.203679e+00	1.203385e+00	1.191789e+00	1.190693e+00	1.195593e+00	1.198247e+00	1.198706e+00	1.317778e+00	1.308989e+00	1.313874e+00	1.361792e+00	1.307374e+00	1.324087e+00	1.304568e+00	1.349867e+00	1.343617e+00	1.341486e+00	1.354496e+00	1.318241e+00	1.302042e+00	1.290962e+00	1.252472e+00	1.276980e+00	1.289929e+00	1.294686e+00	1.296463e+00	1.081575e+00	1.254854e+00	1.243339e+00	1.194635e+00	1.190673e+00	1.183930e+00	1.185322e+00	1.141262e+00	1.135707e+00	1.140408e+00	1.199346e+00	1.238143e+00	1.257535e+00	1.224191e+00	1.175429e+00	1.201713e+00	1.167686e+00	1.098751e+00	1.121446e+00	1.070925e+00	1.254597e+00	1.284987e+00	1.264715e+00	1.195731e+00	1.241499e+00	1.286544e+00	1.262102e+00	1.312239e+00	1.305161e+00	1.305254e+00	1.299684e+00	1.292517e+00	1.102600e+00	1.090125e+00	1.304832e+00	1.303684e+00	1.306608e+00	1.306077e+00	1.286023e+00	1.301706e+00	1.284671e+00	1.317848e+00	1.311734e+00	1.310370e+00	1.312619e+00	1.319048e+00	1.303490e+00	1.303395e+00	1.307343e+00	1.301800e+00	1.295744e+00	1.293482e+00	1.131139e+00	1.312453e+00	1.313676e+00	1.305261e+00	1.297299e+00	1.294097e+00	1.302986e+00	1.291677e+00	1.265939e+00	1.258684e+00	1.236297e+00	1.221375e+00	1.238662e+00	1.255760e+00	1.248477e+00	1.064103e+00	1.067926e+00	9.740863e-01	1.056614e+00	1.027200e+00	1.338092e+00	1.219512e+00	1.241372e+00	1.210525e+00	1.344515e+00	1.333854e+00	8.552609e-01	8.846352e-01	9.220771e-01	9.568188e-01	1.023730e+00	1.080252e+00	1.014651e+00	7.833146e-01	7.371655e-01	7.140284e-01	1.331708e+00	9.884664e-01	8.544254e-01	8.981709e-01	1.317026e+00	1.328120e+00	1.295756e+00	1.284077e+00	1.276887e+00	1.289470e+00	1.306197e+00	1.296392e+00	1.293106e+00	1.152744e+00	1.219075e+00	1.284922e+00	1.296875e+00	8.153828e-01	5.842484e-01	6.473524e-01	1.270078e+00	1.245689e+00	1.299060e+00	1.291281e+00	1.288016e+00	1.292977e+00	1.266980e+00	1.269095e+00	1.236438e+00	1.301909e+00	8.049912e-01	7.189029e-01	1.302330e+00	1.292220e+00	1.300928e+00	1.019289e+00	9.905393e-01	9.534090e-01	1.269558e+00	1.271128e+00	1.207367e+00	1.202413e+00	1.203693e+00	6.311424e-01	1.141384e+00	1.122335e+00	1.139278e+00	1.106755e+00	1.106444e+00	1.067538e+00	1.255042e+00	1.283290e+00	1.283594e+00	1.058354e+00	1.092600e+00	1.128814e+00	1.155548e+00	1.192258e+00	1.292613e+00	1.292581e+00	1.222019e+00	1.250283e+00	1.292661e+00	1.292664e+00	1.292600e+00	1.301459e+00	1.282431e+00	1.239813e+00	1.231241e+00	1.284691e+00	1.311415e+00	1.327076e+00	1.326656e+00	1.214193e+00	1.211579e+00	1.188711e+00	1.059381e+00	9.583360e-01	1.321578e+00	1.372259e+00	1.346777e+00	1.351951e+00	1.328770e+00	1.337100e+00	1.333521e+00	1.325681e+00	1.335212e+00	1.332908e+00	1.360986e+00	1.362350e+00	1.326042e+00	1.204543e+00	1.206118e+00	1.188973e+00	1.207930e+00	1.211053e+00	1.206719e+00	1.295941e+00	1.284331e+00	1.287283e+00	1.225056e+00	1.215408e+00	1.209954e+00	1.213540e+00	1.220242e+00	1.213977e+00	1.284773e+00	1.279350e+00	1.271563e+00	1.212883e+00	1.232205e+00	1.217580e+00	1.210029e+00	1.210970e+00	1.217983e+00	1.254137e+00	1.281475e+00	1.225748e+00	1.299183e+00	1.307704e+00	1.340853e+00	1.350172e+00	1.344144e+00	1.341738e+00	1.338018e+00	1.354944e+00	1.348750e+00	1.336783e+00	1.342267e+00	1.356198e+00	1.357346e+00	1.364605e+00	1.340358e+00	1.364306e+00	1.388819e+00	1.374829e+00	1.405795e+00	1.431581e+00	1.420923e+00	1.314111e+00	1.339277e+00	1.327119e+00	1.441430e+00	1.443882e+00	1.418065e+00	1.409277e+00	1.428065e+00	1.292619e+00	1.292550e+00	1.292545e+00	1.293357e+00	1.293417e+00	1.293760e+00	1.295310e+00	1.296655e+00	1.295960e+00	1.282566e+00	1.259789e+00	1.291931e+00	1.325865e+00	1.334412e+00	1.338613e+00	1.309981e+00	1.304356e+00	1.305588e+00	1.292684e+00	1.292656e+00	1.292641e+00	1.298712e+00	1.299960e+00	1.297416e+00	1.487465e+00	1.607569e+00	1.292781e+00	1.292776e+00	1.292859e+00	1.294045e+00	1.294007e+00	1.293400e+00	1.295009e+00	1.302233e+00	1.296897e+00	1.292546e+00	1.292480e+00	1.292483e+00	1.295836e+00	1.297455e+00	1.297827e+00	1.292503e+00	1.294673e+00	1.294222e+00	1.293685e+00	1.292635e+00	1.292493e+00	1.292459e+00	1.292441e+00	1.292428e+00	1.292404e+00	1.292380e+00	1.292372e+00	1.292440e+00	1.292396e+00	1.292402e+00	1.292387e+00	1.292371e+00	1.292354e+00	1.292350e+00	1.292338e+00	1.292345e+00	1.292353e+00	1.292324e+00	1.292311e+00	1.292310e+00	1.290739e+00	1.292614e+00	1.293157e+00	1.292133e+00	1.292176e+00	1.292208e+00	1.292250e+00	1.292361e+00	1.292155e+00	1.292217e+00	1.292247e+00	1.292302e+00	1.292297e+00	1.225172e+00	1.267175e+00	1.253114e+00	1.264987e+00	1.283080e+00	1.292223e+00	1.289308e+00	1.291667e+00	1.292152e+00	1.292184e+00	1.287922e+00	1.288174e+00	1.290905e+00	1.288192e+00	1.163493e+00	1.250355e+00	1.311832e+00	1.309082e+00	1.296725e+00	5.063229e-01	4.804013e-01	1.292148e+00	1.292126e+00	5.499312e-01	6.159849e-01	5.928046e-01	1.277547e+00	1.287210e+00	1.292084e+00	1.120137e+00	1.287183e+00	1.303467e+00	1.302555e+00	1.280008e+00	1.239729e+00	1.288214e+00	1.286740e+00	1.287313e+00	1.073087e+00	1.085256e+00	1.184810e+00	1.188807e+00	1.217077e+00	1.160074e+00	1.038311e+00	1.034462e+00	1.201424e+00	1.216883e+00	1.208270e+00	1.150074e+00	1.152087e+00	1.147751e+00	1.173812e+00	1.153489e+00	1.133771e+00	1.030985e+00	1.077799e+00	1.046409e+00	1.077178e+00	1.229216e+00	1.078785e+00	1.103998e+00	1.111287e+00	1.131635e+00	1.163226e+00	1.197637e+00	1.162972e+00	1.290768e+00	1.291820e+00	1.291508e+00	1.277180e+00	1.280015e+00	1.272278e+00	1.291963e+00	1.291905e+00	1.173011e+00	1.176508e+00	1.292008e+00	1.292049e+00	1.291664e+00	1.182807e+00	1.089566e+00	1.164562e+00	1.108702e+00	1.292361e+00	1.292372e+00	1.279609e+00	1.292828e+00	1.292864e+00	1.292672e+00	1.288225e+00	1.288267e+00	1.292516e+00	1.292915e+00	1.292435e+00	1.292416e+00	1.292624e+00	1.292669e+00	1.292739e+00	1.292292e+00	1.292639e+00	1.292814e+00	1.293064e+00	1.292007e+00	1.292019e+00	1.292019e+00	1.291994e+00	1.291517e+00	1.291432e+00	1.291639e+00	1.292384e+00	1.292333e+00	1.291504e+00	1.291468e+00	1.291809e+00	1.293144e+00	1.293112e+00	1.293085e+00	1.292901e+00	1.292517e+00	1.292630e+00	1.291950e+00	1.292335e+00	1.292359e+00	1.292385e+00	1.292895e+00	1.292673e+00	1.295950e+00	1.291289e+00	1.291766e+00	1.290018e+00	1.290966e+00	1.292394e+00	1.292381e+00	1.292407e+00	1.292527e+00	1.292442e+00	1.292449e+00	1.292381e+00	1.292071e+00	1.291981e+00	1.291845e+00	1.291912e+00	1.292662e+00	1.292695e+00	1.292732e+00	1.292130e+00	1.292083e+00	1.292053e+00	1.291928e+00	1.291988e+00	1.292012e+00	1.291660e+00	1.291697e+00	1.291633e+00	1.292274e+00	1.292496e+00	1.292587e+00	1.292636e+00	1.292713e+00	1.292486e+00	1.292489e+00	1.292545e+00	1.292232e+00	1.292094e+00	1.292044e+00	1.292319e+00	1.117809e+00	7.584488e-01	8.433582e-01	7.314378e-01	1.291983e+00	1.292889e+00	1.292796e+00	1.292009e+00	1.292120e+00	1.291934e+00	1.292039e+00	1.292424e+00	1.292495e+00	1.292588e+00	1.291997e+00	1.292540e+00	1.292582e+00	1.292640e+00	1.292194e+00	1.292021e+00	1.293638e+00	1.293464e+00	1.292363e+00	1.293377e+00	1.293106e+00	1.293393e+00	1.291508e+00	1.291643e+00	1.292538e+00	1.293010e+00	1.293125e+00	1.293728e+00	1.292333e+00	1.292320e+00	1.292297e+00	1.292366e+00	1.292617e+00	1.292352e+00	1.292355e+00	1.292399e+00	1.292387e+00	1.292270e+00	1.292636e+00	1.291958e+00	1.292675e+00	1.292008e+00	1.292079e+00	1.291539e+00	1.292696e+00	1.291928e+00	1.292305e+00	1.292329e+00	1.292423e+00	1.292477e+00	1.292691e+00	1.292341e+00	1.292720e+00	1.251661e+00	1.182313e+00	1.193552e+00	1.291799e+00	1.291918e+00	1.292572e+00	1.292653e+00	1.292477e+00	1.291824e+00	1.291804e+00	1.291931e+00	1.291646e+00	1.291503e+00	1.291347e+00	1.291835e+00	1.292497e+00	1.292559e+00	1.292455e+00	1.292058e+00	1.292181e+00	1.292262e+00	1.291699e+00	1.133340e+00	1.105719e+00	1.292331e+00	1.292497e+00	1.292563e+00	1.292077e+00	1.291814e+00	1.291920e+00	1.290474e+00	1.292026e+00	1.292010e+00	1.292567e+00	1.292603e+00	1.292362e+00	1.292375e+00	1.292385e+00	1.292470e+00	1.321342e+00	1.305618e+00	1.352992e+00	1.292458e+00	1.286701e+00	1.283613e+00	1.315766e+00	1.321160e+00	1.292106e+00	1.292808e+00	1.292365e+00	1.289733e+00	1.291975e+00	1.289064e+00	1.291295e+00	1.290349e+00	1.294394e+00	1.293433e+00	1.317056e+00	1.318442e+00	1.309564e+00	1.141269e+00	1.289283e+00	1.291098e+00	1.289774e+00	1.290617e+00	1.292745e+00	1.291304e+00	1.293429e+00	1.291051e+00	1.334751e+00	1.346864e+00	1.294181e+00	8.557662e-01	1.290973e+00	1.294815e+00	1.292005e+00	1.290640e+00	1.289948e+00	1.294037e+00	1.292953e+00	1.290695e+00	1.291937e+00	1.292140e+00	1.291162e+00	1.294668e+00	1.287878e+00	1.294822e+00	1.361580e+00	1.428786e+00	1.369848e+00	1.206292e+00	1.254715e+00	1.211848e+00	1.293366e+00	1.295310e+00	1.283388e+00	1.294528e+00	1.293452e+00	1.287306e+00	1.275611e+00	1.295775e+00	1.280926e+00	1.293551e+00	1.293704e+00	1.284742e+00	1.289811e+00	1.285443e+00	1.615960e+00	1.295227e+00	1.283669e+00	1.295732e+00	1.283931e+00	1.282306e+00	1.293280e+00	1.294497e+00	1.292737e+00	1.294000e+00	1.294507e+00	1.297487e+00	1.296578e+00	1.294997e+00	1.300095e+00	1.299484e+00	1.281041e+00	1.291427e+00	1.297238e+00	1.293924e+00	1.394665e+00	1.391966e+00	1.407242e+00	1.285849e+00	1.257227e+00	1.268464e+00	1.246221e+00	1.294722e+00	1.293445e+00	1.282780e+00	1.301740e+00	1.256514e+00	1.125270e+00	1.120668e+00	1.137152e+00	1.301175e+00	1.303608e+00	1.308160e+00	1.296178e+00	1.267128e+00	1.284952e+00	1.298244e+00	1.275510e+00	1.298237e+00	1.302742e+00	1.297087e+00	1.294377e+00	1.275969e+00	9.192500e-01	8.488443e-01	1.100905e+00	1.299733e+00	1.365810e+00	1.386419e+00	1.386604e+00	9.017422e-01	7.727401e-01	7.004095e-01	1.382622e+00	1.406749e+00	1.381974e+00	1.300402e+00	1.299954e+00	1.289414e+00	1.299852e+00	1.282549e+00	1.262950e+00	1.239650e+00	6.745134e-01	1.307143e+00	1.247058e+00	1.304854e+00	1.273095e+00	1.290985e+00	1.229064e+00	1.203519e+00	1.098573e+00	1.078893e+00	1.044557e+00	1.329032e+00	1.330077e+00	1.295266e+00	1.296237e+00	1.291195e+00	1.285691e+00	1.312906e+00	1.346531e+00	1.345586e+00	1.298757e+00	1.302431e+00	1.182921e+00	1.205928e+00	1.260105e+00	1.284760e+00	1.277984e+00	1.281653e+00	1.344268e+00	1.342723e+00	1.335051e+00	1.290815e+00	1.299809e+00	1.271277e+00	1.236235e+00	1.261305e+00	1.337009e+00	1.315392e+00	1.324617e+00	1.310051e+00	1.261242e+00	1.307355e+00	1.299602e+00	1.280480e+00	1.287791e+00	1.229289e+00	1.259045e+00	1.298406e+00	1.263077e+00	1.294102e+00	1.261753e+00	1.234104e+00	1.313267e+00	1.295477e+00	1.176725e+00	1.148151e+00	1.155963e+00	1.172917e+00	1.164191e+00	1.337060e+00	1.115723e+00	1.075097e+00	1.296127e+00	1.357278e+00	1.470249e+00	1.441326e+00	1.473370e+00	1.302077e+00	1.303514e+00	1.303869e+00	1.315666e+00	1.303969e+00	1.244437e+00	1.292935e+00	1.259293e+00	1.307594e+00	1.314371e+00	1.212243e+00	1.264166e+00	1.297666e+00	1.207638e+00	1.278837e+00	1.114458e+00	1.135009e+00	1.088356e+00	1.315799e+00	1.324830e+00	1.165479e+00	1.146375e+00	1.195449e+00	1.282132e+00	1.317385e+00	1.275891e+00	1.264765e+00	1.281628e+00	8.873611e-01	8.075448e-01	9.096258e-01	1.294850e+00	1.347112e+00	1.327054e+00	1.318879e+00	1.407247e+00	1.434288e+00	1.412264e+00	1.303022e+00	1.314513e+00	1.135820e+00	1.303204e+00	1.308005e+00	1.293118e+00	1.311000e+00	1.210877e+00	1.215515e+00	1.210185e+00	1.266065e+00	1.198538e+00	1.222999e+00	1.233260e+00	1.006797e+00	1.147709e+00	1.215335e+00	1.025178e+00	1.182257e+00	1.190296e+00	1.248657e+00	1.287599e+00	1.299299e+00	1.461312e+00	1.463135e+00	1.368561e+00	1.250713e+00	1.277501e+00	1.273225e+00	8.489716e-01	1.428817e+00	1.402949e+00	1.391046e+00	1.201151e+00	1.315043e+00	1.309197e+00	1.312618e+00	1.272907e+00	1.275610e+00	1.215309e+00	1.251158e+00	1.268400e+00	1.339105e+00	1.344187e+00	1.351371e+00	1.279387e+00	1.279136e+00	1.384223e+00	1.205021e+00	1.065567e+00	1.245171e+00	1.207010e+00	1.054433e+00	1.181297e+00	1.047552e+00	1.055360e+00	1.306459e+00	1.301041e+00	1.295383e+00	1.319603e+00	1.154477e+00	1.033189e+00	1.139668e+00	8.849162e-01	1.174984e+00	1.025619e+00	1.240244e+00	1.269954e+00	1.264080e+00	1.187703e+00	1.322286e+00	1.327097e+00	1.321237e+00	1.363757e+00	1.352574e+00	1.353373e+00	1.374785e+00	1.339881e+00	1.370664e+00	1.263210e+00	1.210366e+00	1.210607e+00	1.209171e+00	1.157518e+00	1.269334e+00	1.253155e+00	1.295675e+00	1.234426e+00	1.325400e+00	1.398899e+00	1.150995e+00	1.086428e+00	9.789543e-01	1.287953e+00	1.296779e+00	1.292446e+00	1.321891e+00	1.175413e+00	1.161014e+00	1.103485e+00	1.018905e+00	1.331937e+00	1.319197e+00	1.333410e+00	9.470980e-01	9.325062e-01	1.250609e+00	1.290320e+00	1.198430e+00	1.253394e+00	1.237880e+00	1.307646e+00	1.256941e+00	1.385896e+00	1.410881e+00	1.436239e+00	1.218336e+00	1.316907e+00	1.238600e+00	1.210329e+00	1.199967e+00	1.224901e+00	1.262725e+00	1.432796e+00	1.460882e+00	1.312862e+00	1.242237e+00	6.738177e-01	1.338612e+00	1.306565e+00	6.662384e-01	9.203207e-01	5.888192e-01	6.230623e-01	1.103300e+00	1.313345e+00	1.319074e+00	1.322075e+00	1.275711e+00	1.211395e+00	1.263467e+00	1.239158e+00	1.089149e+00	1.102676e+00	1.159259e+00	1.065510e+00	1.045530e+00	1.253216e+00	1.224888e+00	1.078090e+00	8.538827e-01	9.376318e-01	8.091124e-01	1.072481e+00	1.385973e+00	1.394471e+00	1.413292e+00	1.290669e+00	1.402074e+00	1.240364e+00	1.257350e+00	1.261468e+00	1.240650e+00	1.281041e+00	1.214603e+00	1.186438e+00	1.227582e+00	1.183965e+00	1.209290e+00	1.187984e+00	1.408419e+00	1.145541e+00	6.534592e-01	5.330601e-01	5.050542e-01	1.159214e+00	1.151124e+00	1.149942e+00	1.175368e+00	1.188813e+00	1.211302e+00	1.291512e+00	1.202517e+00	1.132647e+00	1.312847e+00	1.333365e+00	1.296108e+00	1.340130e+00	1.260509e+00	1.292136e+00	1.208482e+00	1.158274e+00	1.089428e+00	1.075348e+00	1.084526e+00	9.595344e-01	1.318178e+00	1.467126e+00	1.379327e+00	1.311232e+00	1.265432e+00	1.251371e+00	1.128302e+00	1.169970e+00	1.257113e+00	1.244975e+00	1.246246e+00	1.224542e+00	1.231176e+00	1.290244e+00	8.533012e-01	7.917410e-01	1.309054e+00	1.200783e+00	1.260875e+00	1.246772e+00	1.246654e+00	1.336820e+00	1.335156e+00	1.337875e+00	1.158510e+00	7.449668e-01	8.599068e-01	1.400455e+00	1.263081e+00	1.282084e+00	1.181726e+00	1.228238e+00	1.220773e+00	1.209351e+00	1.182762e+00	1.151722e+00	1.311085e+00	7.736160e-01	8.888916e-01	1.269093e+00	1.301103e+00	1.242468e+00	1.136477e+00	1.125381e+00	1.145333e+00	4.864599e-01	1.285336e+00	7.555663e-01	1.127776e+00	1.273988e+00	1.273990e+00	1.091729e+00	1.117194e+00	1.082649e+00	1.046246e+00	1.300092e+00	1.325501e+00	1.167173e+00	1.177871e+00	1.129156e+00	1.417698e+00	1.437522e+00	1.422894e+00	1.189076e+00	6.124126e-01	6.789271e-01	1.298685e+00	1.324590e+00	1.246029e+00	1.211436e+00	1.441749e+00	1.353514e+00	1.199150e+00	1.194018e+00	1.489168e+00	1.481369e+00	1.225392e+00	1.264316e+00	1.182039e+00	1.167306e+00	1.158833e+00	1.170991e+00	1.324706e+00	1.180222e+00	1.293639e+00	1.305810e+00	1.357999e+00	1.130177e+00	1.135515e+00	1.138202e+00	1.162394e+00	1.233848e+00	1.241318e+00	9.996525e-01	9.946780e-01	8.017161e-01	1.199865e+00	1.156834e+00	1.176045e+00	1.297080e+00	1.308868e+00	1.335095e+00	1.315270e+00	1.302996e+00	1.330299e+00	1.329639e+00	1.324626e+00	1.326252e+00	1.325142e+00	1.222474e+00	1.233858e+00	1.262036e+00	1.328781e+00	1.230873e+00	1.237190e+00	1.268275e+00	1.331211e+00	1.129274e+00	1.312950e+00	1.218474e+00	1.084835e+00	1.156895e+00	1.130402e+00	1.155260e+00	1.338552e+00	1.318265e+00	1.311344e+00	1.139504e+00	1.259165e+00	1.200306e+00	7.680267e-01	1.060563e+00	6.801655e-01	1.014879e+00	1.169879e+00	1.155267e+00	1.146677e+00	1.014173e+00	1.233879e+00	1.500257e+00	1.528196e+00	1.477388e+00	1.401417e+00	1.361460e+00	1.571992e+00	1.288003e+00	1.352291e+00	1.194677e+00	1.322051e+00	1.318366e+00	1.312691e+00	1.197817e+00	1.284166e+00	1.309372e+00	1.290690e+00	1.106661e+00	6.846642e-01	6.406819e-01	1.284772e+00	1.296397e+00	1.364051e+00	5.640627e-01	6.893316e-01	1.319663e+00	1.345157e+00	1.342647e+00	1.356190e+00	1.079769e+00	9.670683e-01	1.043123e+00	9.978073e-01	1.215440e+00	1.144575e+00	9.344241e-01	8.854599e-01	1.148911e+00	1.201679e+00	1.147033e+00	1.352448e+00	1.319573e+00	1.330435e+00	1.296305e+00	1.027969e+00	1.320323e+00	1.347838e+00	1.350388e+00	1.280378e+00	1.296667