# vtk DataFile Version 3.0
vtk output
ASCII
DATASET UNSTRUCTURED_GRID
POINTS 198 double
0.000000e+00	0.000000e+00	0.0	3.304452e-03	3.752412e-03	0.0	6.841282e-03	7.524845e-03	0.0	1.126555e-02	1.058880e-02	0.0	1.592020e-02	1.365166e-02	0.0	2.110074e-02	1.622244e-02	0.0	2.650187e-02	1.880880e-02	0.0	3.228022e-02	2.106870e-02	0.0	3.829827e-02	2.330005e-02	0.0	4.466924e-02	2.518670e-02	0.0	5.132342e-02	2.685572e-02	0.0	5.832074e-02	2.806932e-02	0.0	6.561595e-02	2.863008e-02	0.0	7.318934e-02	2.878169e-02	0.0	8.094405e-02	2.781149e-02	0.0	8.892220e-02	2.666498e-02	0.0	9.711270e-02	2.526327e-02	0.0	1.055916e-01	2.410938e-02	0.0	1.143439e-01	2.308377e-02	0.0	1.233931e-01	2.271158e-02	0.0	1.327132e-01	2.257665e-02	0.0	1.422681e-01	2.300055e-02	0.0	1.520617e-01	2.387676e-02	0.0	1.620868e-01	2.494051e-02	0.0	1.722451e-01	2.688596e-02	0.0	1.826519e-01	2.887901e-02	0.0	1.931446e-01	3.157554e-02	0.0	2.037741e-01	3.475508e-02	0.0	2.146379e-01	3.800470e-02	0.0	2.254785e-01	4.207284e-02	0.0	2.365289e-01	4.625489e-02	0.0	2.477939e-01	5.051986e-02	0.0	2.592665e-01	5.486846e-02	0.0	2.709416e-01	5.929387e-02	0.0	2.829659e-01	6.334415e-02	0.0	2.952967e-01	6.711753e-02	0.0	3.078107e-01	7.094693e-02	0.0	3.208616e-01	7.331904e-02	0.0	3.340958e-01	7.565982e-02	0.0	3.475727e-01	7.726603e-02	0.0	3.613057e-01	7.791221e-02	0.0	3.751746e-01	7.856478e-02	0.0	3.891492e-01	7.765165e-02	0.0	4.032329e-01	7.667179e-02	0.0	4.173257e-01	7.497005e-02	0.0	4.314102e-01	7.251901e-02	0.0	4.455614e-01	7.005636e-02	0.0	4.595891e-01	6.672976e-02	0.0	4.736530e-01	6.339069e-02	0.0	4.877468e-01	6.007899e-02	0.0	5.018566e-01	5.680226e-02	0.0	5.159590e-01	5.352725e-02	0.0	5.302270e-01	5.122192e-02	0.0	5.444677e-01	4.897511e-02	0.0	5.587313e-01	4.750409e-02	0.0	5.730167e-01	4.695020e-02	0.0	5.872201e-01	4.639950e-02	0.0	6.013209e-01	4.707422e-02	0.0	6.153118e-01	4.775986e-02	0.0	6.291590e-01	4.873198e-02	0.0	6.428505e-01	4.997873e-02	0.0	6.563943e-01	5.121173e-02	0.0	6.697833e-01	5.237684e-02	0.0	6.830018e-01	5.352710e-02	0.0	6.960554e-01	5.442563e-02	0.0	7.089346e-01	5.507034e-02	0.0	7.216134e-01	5.570503e-02	0.0	7.340977e-01	5.552071e-02	0.0	7.463653e-01	5.533612e-02	0.0	7.583650e-01	5.448595e-02	0.0	7.700994e-01	5.310533e-02	0.0	7.815568e-01	5.151079e-02	0.0	7.925800e-01	4.885144e-02	0.0	8.033654e-01	4.624944e-02	0.0	8.137176e-01	4.302295e-02	0.0	8.238027e-01	3.977244e-02	0.0	8.336267e-01	3.653810e-02	0.0	8.431939e-01	3.333755e-02	0.0	8.525518e-01	3.032602e-02	0.0	8.617773e-01	2.775580e-02	0.0	8.707565e-01	2.525421e-02	0.0	8.795842e-01	2.319832e-02	0.0	8.881871e-01	2.128951e-02	0.0	8.965611e-01	1.952046e-02	0.0	9.047275e-01	1.798457e-02	0.0	9.126504e-01	1.649449e-02	0.0	9.203437e-01	1.511079e-02	0.0	9.278016e-01	1.378448e-02	0.0	9.350228e-01	1.248956e-02	0.0	9.420096e-01	1.121672e-02	0.0	9.487694e-01	9.985039e-03	0.0	9.553005e-01	8.763480e-03	0.0	9.616133e-01	7.582774e-03	0.0	9.677080e-01	6.420321e-03	0.0	9.735927e-01	5.293816e-03	0.0	9.792691e-01	4.186806e-03	0.0	9.847444e-01	3.110899e-03	0.0	9.900222e-01	2.058975e-03	0.0	9.951065e-01	1.025742e-03	0.0	1.000000e+00	0.000000e+00	0.0	9.950047e-01	2.152357e-04	0.0	9.898204e-01	4.151777e-04	0.0	9.844413e-01	5.648153e-04	0.0	9.788630e-01	6.693691e-04	0.0	9.730812e-01	7.491994e-04	0.0	9.670908e-01	7.701998e-04	0.0	9.608879e-01	7.679482e-04	0.0	9.544677e-01	6.994092e-04	0.0	9.478260e-01	6.142779e-04	0.0	9.409597e-01	4.324851e-04	0.0	9.338632e-01	2.445943e-04	0.0	9.265363e-01	-5.990150e-05	0.0	9.189724e-01	-3.989543e-04	0.0	9.111759e-01	-8.769640e-04	0.0	9.031492e-01	-1.581584e-03	0.0	8.948762e-01	-2.307837e-03	0.0	8.864339e-01	-3.672468e-03	0.0	8.777534e-01	-5.156605e-03	0.0	8.689217e-01	-7.108118e-03	0.0	8.599888e-01	-9.746943e-03	0.0	8.508111e-01	-1.245808e-02	0.0	8.417300e-01	-1.620280e-02	0.0	8.324282e-01	-2.008697e-02	0.0	8.228766e-01	-2.403188e-02	0.0	8.130784e-01	-2.804109e-02	0.0	8.029751e-01	-3.192758e-02	0.0	7.922675e-01	-3.479354e-02	0.0	7.813241e-01	-3.772260e-02	0.0	7.698281e-01	-3.864380e-02	0.0	7.580372e-01	-3.918838e-02	0.0	7.460406e-01	-3.888690e-02	0.0	7.338471e-01	-3.765091e-02	0.0	7.214393e-01	-3.638634e-02	0.0	7.088666e-01	-3.473497e-02	0.0	6.960955e-01	-3.305753e-02	0.0	6.830931e-01	-3.178384e-02	0.0	6.698680e-01	-3.092471e-02	0.0	6.564725e-01	-3.005450e-02	0.0	6.429075e-01	-3.074207e-02	0.0	6.291946e-01	-3.145487e-02	0.0	6.154199e-01	-3.288249e-02	0.0	6.015994e-01	-3.505580e-02	0.0	5.876706e-01	-3.724615e-02	0.0	5.738856e-01	-4.063358e-02	0.0	5.600256e-01	-4.406342e-02	0.0	5.462095e-01	-4.789761e-02	0.0	5.324842e-01	-5.224835e-02	0.0	5.187228e-01	-5.661053e-02	0.0	5.049707e-01	-6.107608e-02	0.0	4.912167e-01	-6.556070e-02	0.0	4.774056e-01	-6.982387e-02	0.0	4.634380e-01	-7.347210e-02	0.0	4.495070e-01	-7.711076e-02	0.0	4.353691e-01	-7.938777e-02	0.0	4.211981e-01	-8.113253e-02	0.0	4.070851e-01	-8.235376e-02	0.0	3.929921e-01	-8.190710e-02	0.0	3.790089e-01	-8.146391e-02	0.0	3.652480e-01	-7.987690e-02	0.0	3.516529e-01	-7.794645e-02	0.0	3.382392e-01	-7.583481e-02	0.0	3.250861e-01	-7.315320e-02	0.0	3.121003e-01	-7.050570e-02	0.0	2.993250e-01	-6.773963e-02	0.0	2.867500e-01	-6.494974e-02	0.0	2.743684e-01	-6.221190e-02	0.0	2.621782e-01	-5.957487e-02	0.0	2.501992e-01	-5.698355e-02	0.0	2.384047e-01	-5.460542e-02	0.0	2.268079e-01	-5.240678e-02	0.0	2.154419e-01	-5.025191e-02	0.0	2.042268e-01	-4.865500e-02	0.0	1.932505e-01	-4.710973e-02	0.0	1.824979e-01	-4.577740e-02	0.0	1.719616e-01	-4.474547e-02	0.0	1.616765e-01	-4.373816e-02	0.0	1.516343e-01	-4.286577e-02	0.0	1.418441e-01	-4.203681e-02	0.0	1.323145e-01	-4.116669e-02	0.0	1.230537e-01	-4.016821e-02	0.0	1.140460e-01	-3.919701e-02	0.0	1.053350e-01	-3.791714e-02	0.0	9.688678e-02	-3.657214e-02	0.0	8.870490e-02	-3.515929e-02	0.0	8.081724e-02	-3.351369e-02	0.0	7.316901e-02	-3.191804e-02	0.0	6.581747e-02	-3.010960e-02	0.0	5.870601e-02	-2.831913e-02	0.0	5.186168e-02	-2.643867e-02	0.0	4.526533e-02	-2.452389e-02	0.0	3.894067e-02	-2.250066e-02	0.0	3.287074e-02	-2.040811e-02	0.0	2.712459e-02	-1.808083e-02	0.0	2.162911e-02	-1.569845e-02	0.0	1.656538e-02	-1.290648e-02	0.0	1.179678e-02	-1.002249e-02	0.0	7.361283e-03	-6.975540e-03	0.0	3.364140e-03	-3.671974e-03	0.0	
CELLS 198	594
2	100	101	2	101	102	2	102	103	2	103	104	2	104	105	2	105	106	2	106	107	2	107	108	2	108	109	2	109	110	2	110	111	2	111	112	2	112	113	2	113	114	2	114	115	2	115	116	2	116	117	2	117	118	2	118	119	2	119	120	2	120	121	2	121	122	2	122	123	2	123	124	2	124	125	2	125	126	2	126	127	2	127	128	2	128	129	2	129	130	2	130	131	2	131	132	2	132	133	2	133	134	2	134	135	2	135	136	2	136	137	2	137	138	2	138	139	2	139	140	2	140	141	2	141	142	2	142	143	2	143	144	2	144	145	2	145	146	2	146	147	2	147	148	2	148	149	2	149	150	2	150	151	2	151	152	2	152	153	2	153	154	2	154	155	2	155	156	2	156	157	2	157	158	2	158	159	2	159	160	2	160	161	2	161	162	2	162	163	2	163	164	2	164	165	2	165	166	2	166	167	2	167	168	2	168	169	2	169	170	2	170	171	2	171	172	2	172	173	2	173	174	2	174	175	2	42	43	2	43	44	2	44	45	2	45	46	2	46	47	2	47	48	2	48	49	2	49	50	2	50	51	2	51	52	2	52	53	2	53	54	2	54	55	2	55	56	2	56	57	2	57	58	2	58	59	2	59	60	2	60	61	2	61	62	2	62	63	2	63	64	2	64	65	2	65	66	2	66	67	2	67	68	2	68	69	2	69	70	2	70	71	2	71	72	2	72	73	2	73	74	2	74	75	2	75	76	2	76	77	2	77	78	2	78	79	2	79	80	2	80	81	2	81	82	2	82	83	2	83	84	2	84	85	2	85	86	2	86	87	2	87	88	2	88	89	2	89	90	2	90	91	2	91	92	2	92	93	2	93	94	2	94	95	2	95	96	2	96	97	2	97	98	2	98	99	2	99	100	2	0	1	2	1	2	2	2	3	2	3	4	2	4	5	2	5	6	2	6	7	2	7	8	2	8	9	2	9	10	2	10	11	2	11	12	2	12	13	2	13	14	2	14	15	2	15	16	2	16	17	2	17	18	2	18	19	2	19	20	2	20	21	2	21	22	2	22	23	2	23	24	2	24	25	2	25	26	2	26	27	2	27	28	2	28	29	2	29	30	2	30	31	2	31	32	2	32	33	2	33	34	2	34	35	2	35	36	2	36	37	2	37	38	2	38	39	2	39	40	2	40	41	2	41	42	2	175	176	2	176	177	2	177	178	2	178	179	2	179	180	2	180	181	2	181	182	2	182	183	2	183	184	2	184	185	2	185	186	2	186	187	2	187	188	2	188	189	2	189	190	2	190	191	2	191	192	2	192	193	2	193	194	2	194	195	2	195	196	2	196	197	2	197	0	
CELL_TYPES 198
3	3	3	3	3	3	3	3	3	3	3	3	3	3	3	3	3	3	3	3	3	3	3	3	3	3	3	3	3	3	3	3	3	3	3	3	3	3	3	3	3	3	3	3	3	3	3	3	3	3	3	3	3	3	3	3	3	3	3	3	3	3	3	3	3	3	3	3	3	3	3	3	3	3	3	3	3	3	3	3	3	3	3	3	3	3	3	3	3	3	3	3	3	3	3	3	3	3	3	3	3	3	3	3	3	3	3	3	3	3	3	3	3	3	3	3	3	3	3	3	3	3	3	3	3	3	3	3	3	3	3	3	3	3	3	3	3	3	3	3	3	3	3	3	3	3	3	3	3	3	3	3	3	3	3	3	3	3	3	3	3	3	3	3	3	3	3	3	3	3	3	3	3	3	3	3	3	3	3	3	3	3	3	3	3	3	3	3	3	3	3	3	3	3	3	3	3	3	
POINT_DATA 198

SCALARS Density double 1
LOOKUP_TABLE default
1.584517e+00	1.261155e+00	1.272573e+00	1.185319e+00	1.145448e+00	1.105393e+00	1.078224e+00	1.034091e+00	9.866875e-01	9.205628e-01	8.473773e-01	7.423700e-01	6.580465e-01	6.298446e-01	7.900940e-01	1.148992e+00	1.243670e+00	1.281822e+00	1.299134e+00	1.312340e+00	1.317554e+00	1.326114e+00	1.324996e+00	1.331026e+00	1.328037e+00	1.322440e+00	1.323237e+00	1.307634e+00	1.300614e+00	1.285605e+00	1.251936e+00	1.224754e+00	1.191333e+00	1.140841e+00	1.085921e+00	1.044803e+00	9.509251e-01	8.749625e-01	8.402568e-01	7.686304e-01	7.256073e-01	6.634861e-01	5.973506e-01	5.732312e-01	5.258411e-01	4.995892e-01	4.733247e-01	4.510734e-01	5.488767e-01	8.599380e-01	1.073941e+00	1.118383e+00	1.136829e+00	1.134795e+00	1.148607e+00	1.143821e+00	1.145580e+00	1.143398e+00	1.132412e+00	1.127372e+00	1.114948e+00	1.101326e+00	1.088220e+00	1.073460e+00	1.055529e+00	1.044917e+00	1.023694e+00	1.013621e+00	1.010228e+00	1.000787e+00	1.016441e+00	1.023325e+00	1.049080e+00	1.079454e+00	1.098743e+00	1.126023e+00	1.141696e+00	1.154790e+00	1.167272e+00	1.172524e+00	1.177379e+00	1.182245e+00	1.183286e+00	1.186636e+00	1.188144e+00	1.189117e+00	1.191226e+00	1.192417e+00	1.193969e+00	1.195374e+00	1.196962e+00	1.198233e+00	1.199948e+00	1.201509e+00	1.202939e+00	1.204928e+00	1.204169e+00	1.211946e+00	1.193843e+00	1.212238e+00	1.304438e+00	1.270170e+00	1.273169e+00	1.278525e+00	1.279997e+00	1.282048e+00	1.284167e+00	1.286404e+00	1.288130e+00	1.290518e+00	1.292653e+00	1.294423e+00	1.298569e+00	1.297934e+00	1.302887e+00	1.303768e+00	1.300771e+00	1.305587e+00	1.296677e+00	1.294271e+00	1.287555e+00	1.264733e+00	1.245175e+00	1.216133e+00	1.162489e+00	1.123828e+00	1.049914e+00	1.008679e+00	1.034331e+00	1.048990e+00	1.102289e+00	1.150174e+00	1.182641e+00	1.219309e+00	1.244455e+00	1.254221e+00	1.274064e+00	1.279301e+00	1.277298e+00	1.283585e+00	1.275111e+00	1.275994e+00	1.271146e+00	1.258366e+00	1.252471e+00	1.236426e+00	1.216192e+00	1.196198e+00	1.147733e+00	8.961362e-01	6.208022e-01	5.445160e-01	5.813102e-01	6.551601e-01	6.973439e-01	7.897902e-01	8.727190e-01	9.380212e-01	1.022405e+00	1.062998e+00	1.117572e+00	1.170305e+00	1.203021e+00	1.238023e+00	1.265530e+00	1.286771e+00	1.308511e+00	1.327388e+00	1.336595e+00	1.357669e+00	1.365029e+00	1.361771e+00	1.369580e+00	1.363385e+00	1.355350e+00	1.349836e+00	1.336923e+00	1.323348e+00	1.316729e+00	1.303256e+00	1.296065e+00	1.303800e+00	1.303089e+00	1.313880e+00	1.322724e+00	1.333021e+00	1.350241e+00	1.361344e+00	1.375514e+00	1.388621e+00	1.401827e+00	1.423345e+00	1.441873e+00	1.475568e+00	1.517629e+00	1.555349e+00	1.588324e+00	1.673938e+00	
VECTORS Momentum double
1.185880e+01	1.601715e+02	0.0	1.600991e+02	1.669011e+02	0.0	2.036162e+02	1.724147e+02	0.0	2.359194e+02	1.583269e+02	0.0	2.593893e+02	1.484529e+02	0.0	2.759109e+02	1.343745e+02	0.0	2.881515e+02	1.248957e+02	0.0	2.954922e+02	1.126269e+02	0.0	3.018168e+02	1.007930e+02	0.0	3.044078e+02	8.374371e+01	0.0	3.044396e+02	6.573936e+01	0.0	2.932731e+02	3.775258e+01	0.0	2.775296e+02	1.510055e+01	0.0	2.542576e+02	-9.215398e+00	0.0	2.378834e+02	-3.322984e+01	0.0	2.244968e+02	-3.476351e+01	0.0	2.032563e+02	-3.217838e+01	0.0	1.832059e+02	-2.271028e+01	0.0	1.675953e+02	-1.310419e+01	0.0	1.577827e+02	-4.149346e+00	0.0	1.507911e+02	2.280405e+00	0.0	1.483631e+02	1.009672e+01	0.0	1.462623e+02	1.436044e+01	0.0	1.453907e+02	2.185468e+01	0.0	1.484406e+02	2.833447e+01	0.0	1.524298e+02	3.405986e+01	0.0	1.575048e+02	4.412554e+01	0.0	1.673036e+02	4.980758e+01	0.0	1.764959e+02	5.945137e+01	0.0	1.910758e+02	7.188898e+01	0.0	2.065808e+02	7.804207e+01	0.0	2.198005e+02	8.309678e+01	0.0	2.346466e+02	8.914918e+01	0.0	2.495371e+02	8.951683e+01	0.0	2.619706e+02	8.388925e+01	0.0	2.751167e+02	8.479596e+01	0.0	2.843880e+02	6.935932e+01	0.0	2.852973e+02	5.101296e+01	0.0	2.895798e+02	4.356304e+01	0.0	2.828695e+02	2.434904e+01	0.0	2.790414e+02	1.369122e+01	0.0	2.695150e+02	-1.339616e+00	0.0	2.531167e+02	-1.732318e+01	0.0	2.492107e+02	-2.364780e+01	0.0	2.345162e+02	-3.406292e+01	0.0	2.265402e+02	-3.935870e+01	0.0	2.196069e+02	-4.468749e+01	0.0	2.040191e+02	-4.711592e+01	0.0	2.099377e+02	-4.867783e+01	0.0	2.082034e+02	-4.778629e+01	0.0	1.828859e+02	-4.376114e+01	0.0	1.647251e+02	-3.051340e+01	0.0	1.538937e+02	-2.300524e+01	0.0	1.423407e+02	-1.849959e+01	0.0	1.388858e+02	-9.560434e+00	0.0	1.373378e+02	-5.445251e+00	0.0	1.387128e+02	4.169300e-01	0.0	1.445637e+02	6.995241e+00	0.0	1.501769e+02	8.891644e+00	0.0	1.562089e+02	1.261938e+01	0.0	1.639746e+02	1.489265e+01	0.0	1.725132e+02	1.528147e+01	0.0	1.801025e+02	1.559768e+01	0.0	1.887906e+02	1.466981e+01	0.0	1.956175e+02	1.139979e+01	0.0	2.035356e+02	1.003615e+01	0.0	2.097347e+02	3.665392e+00	0.0	2.121981e+02	-3.237543e+00	0.0	2.156219e+02	-9.117553e+00	0.0	2.136192e+02	-2.031423e+01	0.0	2.115813e+02	-2.717536e+01	0.0	2.040337e+02	-3.868772e+01	0.0	1.910133e+02	-4.613499e+01	0.0	1.787893e+02	-4.912402e+01	0.0	1.627633e+02	-5.168900e+01	0.0	1.497383e+02	-4.862465e+01	0.0	1.381872e+02	-4.572249e+01	0.0	1.269079e+02	-4.161739e+01	0.0	1.190290e+02	-3.567168e+01	0.0	1.132084e+02	-3.155568e+01	0.0	1.074855e+02	-2.753990e+01	0.0	1.044590e+02	-2.372381e+01	0.0	1.017714e+02	-2.207327e+01	0.0	9.922103e+01	-1.981378e+01	0.0	9.737835e+01	-1.829551e+01	0.0	9.516583e+01	-1.751443e+01	0.0	9.330434e+01	-1.666491e+01	0.0	9.130242e+01	-1.628278e+01	0.0	8.907521e+01	-1.606134e+01	0.0	8.635571e+01	-1.569571e+01	0.0	8.342529e+01	-1.536883e+01	0.0	8.068294e+01	-1.511286e+01	0.0	7.801981e+01	-1.474718e+01	0.0	7.540111e+01	-1.441839e+01	0.0	7.255594e+01	-1.402957e+01	0.0	6.967707e+01	-1.358026e+01	0.0	6.595219e+01	-1.320409e+01	0.0	6.544834e+01	-1.290428e+01	0.0	6.055424e+01	-1.469340e+01	0.0	1.031842e+02	7.918129e+00	0.0	1.690003e+02	-1.076086e+01	0.0	1.553348e+02	-4.935294e+00	0.0	1.495257e+02	-3.003794e+00	0.0	1.486944e+02	-2.503072e+00	0.0	1.462432e+02	-1.271338e+00	0.0	1.439139e+02	-1.574517e-01	0.0	1.415149e+02	8.018742e-01	0.0	1.394437e+02	1.646549e+00	0.0	1.372453e+02	2.727073e+00	0.0	1.352746e+02	3.550907e+00	0.0	1.329887e+02	4.512176e+00	0.0	1.308705e+02	5.681113e+00	0.0	1.278556e+02	6.702250e+00	0.0	1.254805e+02	9.416688e+00	0.0	1.234824e+02	1.076177e+01	0.0	1.204096e+02	1.500192e+01	0.0	1.205633e+02	2.008731e+01	0.0	1.216720e+02	2.359104e+01	0.0	1.223290e+02	3.169401e+01	0.0	1.277744e+02	3.765800e+01	0.0	1.325139e+02	4.678174e+01	0.0	1.433723e+02	5.964222e+01	0.0	1.610158e+02	6.670140e+01	0.0	1.774189e+02	7.276801e+01	0.0	1.971134e+02	7.841531e+01	0.0	2.217518e+02	7.155544e+01	0.0	2.380813e+02	6.413819e+01	0.0	2.557014e+02	4.396187e+01	0.0	2.607282e+02	1.656591e+01	0.0	2.517524e+02	2.866090e+00	0.0	2.434941e+02	-1.567468e+01	0.0	2.258929e+02	-2.287657e+01	0.0	2.084078e+02	-2.438166e+01	0.0	1.918389e+02	-2.528085e+01	0.0	1.743949e+02	-2.006703e+01	0.0	1.613588e+02	-1.306326e+01	0.0	1.509581e+02	-1.004500e+01	0.0	1.403769e+02	-9.521999e-01	0.0	1.361282e+02	7.051852e+00	0.0	1.329658e+02	1.003795e+01	0.0	1.305552e+02	1.714546e+01	0.0	1.315670e+02	2.052099e+01	0.0	1.325422e+02	2.657978e+01	0.0	1.381141e+02	3.424018e+01	0.0	1.459858e+02	3.819837e+01	0.0	1.528665e+02	4.537983e+01	0.0	1.627409e+02	5.134997e+01	0.0	1.772870e+02	5.628138e+01	0.0	1.926310e+02	6.129836e+01	0.0	2.212987e+02	6.830094e+01	0.0	2.391942e+02	6.709640e+01	0.0	2.394435e+02	6.045944e+01	0.0	2.578852e+02	5.303998e+01	0.0	2.815607e+02	3.959112e+01	0.0	2.908647e+02	2.998495e+01	0.0	3.125753e+02	7.320923e+00	0.0	3.221802e+02	-1.093085e+01	0.0	3.269132e+02	-2.549324e+01	0.0	3.328562e+02	-4.394728e+01	0.0	3.289325e+02	-4.920047e+01	0.0	3.272523e+02	-5.955536e+01	0.0	3.229376e+02	-6.618099e+01	0.0	3.172580e+02	-6.661995e+01	0.0	3.132441e+02	-6.881851e+01	0.0	3.080988e+02	-6.831709e+01	0.0	3.036902e+02	-6.647221e+01	0.0	2.996147e+02	-6.488759e+01	0.0	2.956305e+02	-6.187269e+01	0.0	2.927052e+02	-5.719189e+01	0.0	2.900612e+02	-5.516719e+01	0.0	2.865573e+02	-4.743254e+01	0.0	2.867974e+02	-4.037766e+01	0.0	2.877174e+02	-3.830915e+01	0.0	2.879842e+02	-3.194124e+01	0.0	2.906513e+02	-2.840593e+01	0.0	2.933955e+02	-2.719884e+01	0.0	2.959412e+02	-2.535339e+01	0.0	2.994215e+02	-2.629248e+01	0.0	3.019219e+02	-3.008538e+01	0.0	3.029785e+02	-3.254829e+01	0.0	3.045082e+02	-3.869789e+01	0.0	3.034550e+02	-4.652889e+01	0.0	3.008528e+02	-4.998016e+01	0.0	2.987196e+02	-5.703431e+01	0.0	2.943289e+02	-6.141830e+01	0.0	2.901077e+02	-6.584515e+01	0.0	2.849702e+02	-7.100288e+01	0.0	2.788065e+02	-7.328092e+01	0.0	2.732376e+02	-7.719952e+01	0.0	2.659789e+02	-8.106970e+01	0.0	2.578665e+02	-8.564978e+01	0.0	2.465656e+02	-9.229870e+01	0.0	2.318967e+02	-9.696129e+01	0.0	2.115532e+02	-1.038925e+02	0.0	1.817533e+02	-1.050723e+02	0.0	1.447532e+02	-9.306745e+01	0.0	1.009581e+02	-7.432664e+01	0.0	2.182182e+01	-1.872338e+01	0.0	
SCALARS Energy double 1
LOOKUP_TABLE default
3.459463e+05	2.795547e+05	2.839633e+05	2.667793e+05	2.595433e+05	2.518890e+05	2.468931e+05	2.380693e+05	2.286343e+05	2.151029e+05	2.001173e+05	1.778168e+05	1.594755e+05	1.512711e+05	1.817724e+05	2.555885e+05	2.745685e+05	2.817760e+05	2.848397e+05	2.873078e+05	2.881926e+05	2.899651e+05	2.896692e+05	2.909682e+05	2.904566e+05	2.894215e+05	2.898476e+05	2.869043e+05	2.858627e+05	2.834295e+05	2.770613e+05	2.720425e+05	2.659095e+05	2.562052e+05	2.454485e+05	2.379097e+05	2.190917e+05	2.034600e+05	1.967989e+05	1.816680e+05	1.727230e+05	1.595249e+05	1.449360e+05	1.399288e+05	1.292913e+05	1.234597e+05	1.178043e+05	1.117059e+05	1.311181e+05	1.940680e+05	2.376003e+05	2.461191e+05	2.495770e+05	2.486869e+05	2.514990e+05	2.504101e+05	2.508317e+05	2.505762e+05	2.484315e+05	2.475958e+05	2.452627e+05	2.427258e+05	2.402831e+05	2.375640e+05	2.341002e+05	2.322797e+05	2.281402e+05	2.261630e+05	2.256658e+05	2.236050e+05	2.268224e+05	2.279403e+05	2.327633e+05	2.386416e+05	2.420667e+05	2.473356e+05	2.502409e+05	2.526360e+05	2.550260e+05	2.559581e+05	2.568219e+05	2.577698e+05	2.579183e+05	2.585681e+05	2.588430e+05	2.589986e+05	2.594084e+05	2.596198e+05	2.599061e+05	2.601511e+05	2.604337e+05	2.606538e+05	2.609731e+05	2.612616e+05	2.615195e+05	2.619000e+05	2.616746e+05	2.633489e+05	2.593630e+05	2.641498e+05	2.860229e+05	2.781675e+05	2.786110e+05	2.797340e+05	2.799691e+05	2.803345e+05	2.807142e+05	2.811311e+05	2.814356e+05	2.818907e+05	2.822833e+05	2.826041e+05	2.834127e+05	2.832147e+05	2.842304e+05	2.843502e+05	2.837276e+05	2.848121e+05	2.829585e+05	2.826360e+05	2.814121e+05	2.769955e+05	2.735153e+05	2.680519e+05	2.576293e+05	2.506165e+05	2.359581e+05	2.282775e+05	2.337333e+05	2.361180e+05	2.467598e+05	2.558312e+05	2.617877e+05	2.688078e+05	2.734119e+05	2.749772e+05	2.788618e+05	2.796316e+05	2.790748e+05	2.803390e+05	2.784649e+05	2.786991e+05	2.777162e+05	2.751897e+05	2.742099e+05	2.710709e+05	2.671659e+05	2.635411e+05	2.539852e+05	2.028881e+05	1.488299e+05	1.340852e+05	1.430987e+05	1.597069e+05	1.687427e+05	1.889573e+05	2.062699e+05	2.197958e+05	2.374707e+05	2.453893e+05	2.565014e+05	2.670590e+05	2.733682e+05	2.803483e+05	2.856869e+05	2.897807e+05	2.940257e+05	2.976772e+05	2.993627e+05	3.035992e+05	3.048514e+05	3.041155e+05	3.057967e+05	3.044626e+05	3.029125e+05	3.019158e+05	2.993543e+05	2.967360e+05	2.955359e+05	2.928043e+05	2.914520e+05	2.930709e+05	2.927865e+05	2.949859e+05	2.966114e+05	2.985650e+05	3.019405e+05	3.039437e+05	3.066687e+05	3.090925e+05	3.115262e+05	3.156255e+05	3.189461e+05	3.253718e+05	3.332639e+05	3.400154e+05	3.458598e+05	3.630832e+05	
SCALARS Pressure double 1
LOOKUP_TABLE default
1.351226e+05	1.033395e+05	1.023975e+05	9.309083e+04	8.822148e+04	8.371491e+04	8.046230e+04	7.588699e+04	7.092997e+04	6.438548e+04	5.715154e+04	4.757123e+04	4.031139e+04	3.995355e+04	5.810493e+04	9.325234e+04	1.030172e+05	1.073930e+05	1.095853e+05	1.111265e+05	1.118247e+05	1.126510e+05	1.126075e+05	1.131392e+05	1.127433e+05	1.120792e+05	1.118952e+05	1.101012e+05	1.090114e+05	1.068880e+05	1.030340e+05	9.980011e+04	9.578630e+04	9.016100e+04	8.424356e+04	7.929876e+04	6.961483e+04	6.218388e+04	5.830812e+04	5.169275e+04	4.757575e+04	4.191347e+04	3.642319e+04	3.410767e+04	3.035718e+04	2.821864e+04	2.589987e+04	2.524264e+04	3.552418e+04	6.701431e+04	8.845459e+04	9.342871e+04	9.557116e+04	9.584360e+04	9.722496e+04	9.686084e+04	9.697343e+04	9.656638e+04	9.537545e+04	9.468121e+04	9.324218e+04	9.164338e+04	9.010707e+04	8.834495e+04	8.636484e+04	8.496342e+04	8.265934e+04	8.157854e+04	8.104546e+04	8.024008e+04	8.177512e+04	8.274741e+04	8.574374e+04	8.908700e+04	9.151813e+04	9.453184e+04	9.638500e+04	9.796507e+04	9.936486e+04	1.000273e+05	1.006374e+05	1.011668e+05	1.013343e+05	1.017018e+05	1.018847e+05	1.020246e+05	1.022551e+05	1.024053e+05	1.025902e+05	1.027715e+05	1.029711e+05	1.031369e+05	1.033384e+05	1.035237e+05	1.036998e+05	1.039235e+05	1.039184e+05	1.046052e+05	1.030947e+05	1.038930e+05	1.100123e+05	1.074638e+05	1.079308e+05	1.084340e+05	1.086456e+05	1.089028e+05	1.091666e+05	1.094289e+05	1.096485e+05	1.099184e+05	1.101738e+05	1.103904e+05	1.108405e+05	1.108460e+05	1.113338e+05	1.114815e+05	1.111941e+05	1.115718e+05	1.107204e+05	1.103124e+05	1.094972e+05	1.069851e+05	1.045273e+05	1.011733e+05	9.530926e+04	9.058427e+04	8.280204e+04	7.796366e+04	8.029567e+04	8.236176e+04	8.790183e+04	9.336846e+04	9.726931e+04	1.013817e+05	1.044122e+05	1.058118e+05	1.079516e+05	1.087718e+05	1.087206e+05	1.093651e+05	1.086664e+05	1.087005e+05	1.082113e+05	1.068577e+05	1.060478e+05	1.043153e+05	1.020774e+05	9.963173e+04	9.447324e+04	6.918426e+04	3.964936e+04	3.123308e+04	3.339059e+04	3.920364e+04	4.297508e+04	5.082776e+04	5.869283e+04	6.499302e+04	7.293741e+04	7.734340e+04	8.280033e+04	8.825261e+04	9.187611e+04	9.552286e+04	9.853558e+04	1.008908e+05	1.032460e+05	1.053257e+05	1.064356e+05	1.085972e+05	1.095797e+05	1.093265e+05	1.100158e+05	1.094693e+05	1.085800e+05	1.079024e+05	1.065437e+05	1.050405e+05	1.042309e+05	1.028720e+05	1.020410e+05	1.027707e+05	1.028392e+05	1.039160e+05	1.049755e+05	1.061482e+05	1.080008e+05	1.093685e+05	1.109455e+05	1.125012e+05	1.140769e+05	1.165106e+05	1.188152e+05	1.226196e+05	1.274972e+05	1.321980e+05	1.363649e+05	1.451345e+05	
SCALARS Temperature double 1
LOOKUP_TABLE default
2.970717e+02	2.854489e+02	2.803090e+02	2.735910e+02	2.683054e+02	2.638253e+02	2.599642e+02	2.556459e+02	2.504266e+02	2.436491e+02	2.349532e+02	2.232309e+02	2.134035e+02	2.209797e+02	2.561914e+02	2.827308e+02	2.885591e+02	2.918625e+02	2.938520e+02	2.949861e+02	2.956648e+02	2.959269e+02	2.960622e+02	2.961128e+02	2.957408e+02	2.952429e+02	2.945805e+02	2.933163e+02	2.919806e+02	2.896354e+02	2.867007e+02	2.838655e+02	2.800920e+02	2.753112e+02	2.702520e+02	2.644006e+02	2.550268e+02	2.475818e+02	2.417394e+02	2.342839e+02	2.284096e+02	2.200656e+02	2.124120e+02	2.072777e+02	2.011116e+02	1.967675e+02	1.906201e+02	1.949477e+02	2.254652e+02	2.714756e+02	2.869263e+02	2.910182e+02	2.928613e+02	2.942227e+02	2.948741e+02	2.949990e+02	2.948883e+02	2.942109e+02	2.934017e+02	2.925679e+02	2.913320e+02	2.898782e+02	2.884513e+02	2.866990e+02	2.850342e+02	2.832569e+02	2.812887e+02	2.803693e+02	2.794729e+02	2.793057e+02	2.802654e+02	2.816898e+02	2.847240e+02	2.875018e+02	2.901627e+02	2.924564e+02	2.940960e+02	2.955281e+02	2.965453e+02	2.971852e+02	2.977649e+02	2.980993e+02	2.983303e+02	2.985667e+02	2.987240e+02	2.988894e+02	2.990343e+02	2.991743e+02	2.993249e+02	2.995018e+02	2.996853e+02	2.998493e+02	3.000058e+02	3.001533e+02	3.003067e+02	3.004575e+02	3.006321e+02	3.006771e+02	3.008291e+02	2.985580e+02	2.937976e+02	2.947344e+02	2.953178e+02	2.954516e+02	2.956880e+02	2.959139e+02	2.961411e+02	2.963364e+02	2.965331e+02	2.967130e+02	2.969113e+02	2.970882e+02	2.973472e+02	2.975073e+02	2.976806e+02	2.978742e+02	2.977909e+02	2.977002e+02	2.974583e+02	2.969132e+02	2.962565e+02	2.946827e+02	2.924352e+02	2.898112e+02	2.856121e+02	2.807912e+02	2.747373e+02	2.692585e+02	2.704351e+02	2.735171e+02	2.778003e+02	2.827920e+02	2.865188e+02	2.896518e+02	2.922821e+02	2.938938e+02	2.951673e+02	2.961925e+02	2.965171e+02	2.968141e+02	2.968778e+02	2.967652e+02	2.965566e+02	2.958213e+02	2.949608e+02	2.939073e+02	2.923868e+02	2.901516e+02	2.867467e+02	2.689451e+02	2.224915e+02	1.998180e+02	2.000997e+02	2.084535e+02	2.146841e+02	2.241917e+02	2.342831e+02	2.413706e+02	2.485180e+02	2.534668e+02	2.580992e+02	2.626993e+02	2.660479e+02	2.687875e+02	2.712383e+02	2.731369e+02	2.748692e+02	2.764184e+02	2.774069e+02	2.786476e+02	2.796523e+02	2.796736e+02	2.798325e+02	2.797076e+02	2.790800e+02	2.784714e+02	2.776204e+02	2.765113e+02	2.757595e+02	2.749779e+02	2.742700e+02	2.745923e+02	2.749255e+02	2.755225e+02	2.764708e+02	2.773997e+02	2.786416e+02	2.798689e+02	2.809799e+02	2.822304e+02	2.834874e+02	2.851581e+02	2.870617e+02	2.894883e+02	2.926615e+02	2.960924e+02	2.990844e+02	3.020380e+02	
SCALARS Mach double 1
LOOKUP_TABLE default
2.933565e-01	5.414339e-01	6.246668e-01	7.228862e-01	7.945809e-01	8.526353e-01	9.011359e-01	9.540560e-01	1.016563e+00	1.096006e+00	1.196137e+00	1.329825e+00	1.442265e+00	1.355503e+00	9.474375e-01	5.865476e-01	4.859013e-01	4.205183e-01	3.765461e-01	3.493119e-01	3.320537e-01	3.251678e-01	3.215592e-01	3.202024e-01	3.300724e-01	3.428745e-01	3.592628e-01	3.888143e-01	4.180212e-01	4.654479e-01	5.196538e-01	5.680463e-01	6.280017e-01	6.986122e-01	7.686329e-01	8.452969e-01	9.615458e-01	1.050108e+00	1.118132e+00	1.203792e+00	1.270818e+00	1.365940e+00	1.453677e+00	1.513067e+00	1.585201e+00	1.636682e+00	1.710661e+00	1.658436e+00	1.304363e+00	7.520631e-01	5.156509e-01	4.380124e-01	3.989742e-01	3.678428e-01	3.520837e-01	3.489909e-01	3.517349e-01	3.681217e-01	3.868821e-01	4.054047e-01	4.315817e-01	4.607305e-01	4.879109e-01	5.196845e-01	5.484996e-01	5.780250e-01	6.094549e-01	6.237381e-01	6.374449e-01	6.399771e-01	6.253376e-01	6.031481e-01	5.537398e-01	5.053264e-01	4.551508e-01	4.078269e-01	3.708369e-01	3.355965e-01	3.083631e-01	2.900296e-01	2.724300e-01	2.617763e-01	2.541678e-01	2.461544e-01	2.406813e-01	2.347931e-01	2.295182e-01	2.243065e-01	2.185702e-01	2.116393e-01	2.042129e-01	1.973460e-01	1.905687e-01	1.839623e-01	1.768353e-01	1.695447e-01	1.606975e-01	1.583427e-01	1.501108e-01	2.464547e-01	3.778067e-01	3.555180e-01	3.409759e-01	3.375630e-01	3.314495e-01	3.255123e-01	3.194402e-01	3.141306e-01	3.087009e-01	3.036579e-01	2.980029e-01	2.928755e-01	2.852134e-01	2.803789e-01	2.750537e-01	2.689927e-01	2.716161e-01	2.744480e-01	2.818668e-01	2.979490e-01	3.163139e-01	3.567787e-01	4.082867e-01	4.620352e-01	5.386333e-01	6.172140e-01	7.067692e-01	7.819373e-01	7.661664e-01	7.239179e-01	6.624845e-01	5.855613e-01	5.228625e-01	4.651304e-01	4.115861e-01	3.755720e-01	3.447796e-01	3.180513e-01	3.091462e-01	3.007865e-01	2.989659e-01	3.021777e-01	3.080477e-01	3.279589e-01	3.499388e-01	3.752578e-01	4.093325e-01	4.553684e-01	5.188391e-01	7.861080e-01	1.338257e+00	1.600470e+00	1.597140e+00	1.499418e+00	1.427548e+00	1.318874e+00	1.203802e+00	1.122394e+00	1.039104e+00	9.803237e-01	9.241446e-01	8.669114e-01	8.241013e-01	7.882004e-01	7.552934e-01	7.292093e-01	7.048994e-01	6.826973e-01	6.682807e-01	6.498835e-01	6.347184e-01	6.343930e-01	6.319706e-01	6.338757e-01	6.433861e-01	6.525165e-01	6.651387e-01	6.813519e-01	6.921968e-01	7.033575e-01	7.133673e-01	7.088206e-01	7.041016e-01	6.955938e-01	6.819392e-01	6.683870e-01	6.499725e-01	6.314147e-01	6.142798e-01	5.945703e-01	5.742610e-01	5.463960e-01	5.132371e-01	4.682871e-01	4.033633e-01	3.207493e-01	2.276669e-01	4.930261e-02	
SCALARS Pressure_Coefficient double 1
LOOKUP_TABLE default