# vtk DataFile Version 3.0
vtk output
ASCII
DATASET UNSTRUCTURED_GRID
POINTS 1833 double
1.000000e+02	0.000000e+00	0.0	9.917900e+01	1.278772e+01	0.0	9.672949e+01	2.536546e+01	0.0	9.269168e+01	3.752670e+01	0.0	8.713187e+01	4.907176e+01	0.0	8.014136e+01	5.981105e+01	0.0	7.183494e+01	6.956826e+01	0.0	6.234898e+01	7.818315e+01	0.0	5.183926e+01	8.551428e+01	0.0	4.047833e+01	9.144126e+01	0.0	2.845276e+01	9.586679e+01	0.0	1.595999e+01	9.871818e+01	0.0	3.205158e+00	9.994862e+01	0.0	-9.602303e+00	9.953791e+01	0.0	-2.225209e+01	9.749279e+01	0.0	-3.453651e+01	9.384684e+01	0.0	-4.625383e+01	8.865993e+01	0.0	-5.721167e+01	8.201723e+01	0.0	-6.723009e+01	7.402780e+01	0.0	-7.614460e+01	6.482284e+01	0.0	-8.380881e+01	5.455349e+01	0.0	-9.009689e+01	4.338837e+01	0.0	-9.490557e+01	3.151082e+01	0.0	-9.815592e+01	1.911586e+01	0.0	-9.979454e+01	6.407022e+00	0.0	-9.979454e+01	-6.407022e+00	0.0	-9.815592e+01	-1.911586e+01	0.0	-9.490557e+01	-3.151082e+01	0.0	-9.009689e+01	-4.338837e+01	0.0	-8.380881e+01	-5.455349e+01	0.0	-7.614460e+01	-6.482284e+01	0.0	-6.723009e+01	-7.402780e+01	0.0	-5.721167e+01	-8.201723e+01	0.0	-4.625383e+01	-8.865993e+01	0.0	-3.453651e+01	-9.384684e+01	0.0	-2.225209e+01	-9.749279e+01	0.0	-9.602303e+00	-9.953791e+01	0.0	3.205158e+00	-9.994862e+01	0.0	1.595999e+01	-9.871818e+01	0.0	2.845276e+01	-9.586679e+01	0.0	4.047833e+01	-9.144126e+01	0.0	5.183926e+01	-8.551428e+01	0.0	6.234898e+01	-7.818315e+01	0.0	7.183494e+01	-6.956826e+01	0.0	8.014136e+01	-5.981105e+01	0.0	8.713187e+01	-4.907176e+01	0.0	9.269168e+01	-3.752670e+01	0.0	9.672949e+01	-2.536546e+01	0.0	9.917900e+01	-1.278772e+01	0.0	0.000000e+00	0.000000e+00	0.0	3.196708e-03	3.844614e-03	0.0	6.575086e-03	7.766339e-03	0.0	1.097142e-02	1.086703e-02	0.0	1.557188e-02	1.400888e-02	0.0	2.076874e-02	1.653742e-02	0.0	2.617436e-02	1.910391e-02	0.0	3.197971e-02	2.127536e-02	0.0	3.800515e-02	2.347208e-02	0.0	4.433088e-02	2.547533e-02	0.0	5.088065e-02	2.751599e-02	0.0	5.767127e-02	2.955343e-02	0.0	6.466422e-02	3.172532e-02	0.0	7.186347e-02	3.403120e-02	0.0	7.926614e-02	3.648740e-02	0.0	8.691255e-02	3.897378e-02	0.0	9.494702e-02	4.101082e-02	0.0	1.033031e-01	4.265682e-02	0.0	1.120407e-01	4.358950e-02	0.0	1.210491e-01	4.389639e-02	0.0	1.303323e-01	4.349234e-02	0.0	1.398587e-01	4.293061e-02	0.0	1.496161e-01	4.202740e-02	0.0	1.596256e-01	4.110085e-02	0.0	1.699193e-01	4.065062e-02	0.0	1.804663e-01	4.023425e-02	0.0	1.912471e-01	4.038748e-02	0.0	2.022524e-01	4.137270e-02	0.0	2.134988e-01	4.237950e-02	0.0	2.247756e-01	4.472064e-02	0.0	2.362469e-01	4.732181e-02	0.0	2.478952e-01	5.014793e-02	0.0	2.596291e-01	5.352953e-02	0.0	2.715690e-01	5.697050e-02	0.0	2.837298e-01	6.038983e-02	0.0	2.960947e-01	6.381650e-02	0.0	3.086474e-01	6.727183e-02	0.0	3.215683e-01	6.997175e-02	0.0	3.346548e-01	7.270630e-02	0.0	3.479820e-01	7.496080e-02	0.0	3.615488e-01	7.667119e-02	0.0	3.752491e-01	7.839841e-02	0.0	3.891657e-01	7.898997e-02	0.0	4.031940e-01	7.954867e-02	0.0	4.173142e-01	7.949063e-02	0.0	4.315122e-01	7.877833e-02	0.0	4.457759e-01	7.805051e-02	0.0	4.599917e-01	7.620526e-02	0.0	4.742447e-01	7.435518e-02	0.0	4.884563e-01	7.209788e-02	0.0	5.026164e-01	6.946503e-02	0.0	5.167684e-01	6.683097e-02	0.0	5.308081e-01	6.375560e-02	0.0	5.448112e-01	6.068826e-02	0.0	5.587512e-01	5.757898e-02	0.0	5.726128e-01	5.442501e-02	0.0	5.863951e-01	5.128907e-02	0.0	6.001435e-01	4.844629e-02	0.0	6.137901e-01	4.564706e-02	0.0	6.273668e-01	4.315247e-02	0.0	6.408914e-01	4.113520e-02	0.0	6.542709e-01	3.913958e-02	0.0	6.675960e-01	3.813893e-02	0.0	6.807709e-01	3.732713e-02	0.0	6.937742e-01	3.681857e-02	0.0	7.066046e-01	3.693465e-02	0.0	7.192367e-01	3.704895e-02	0.0	7.316579e-01	3.737041e-02	0.0	7.438638e-01	3.773629e-02	0.0	7.558502e-01	3.794433e-02	0.0	7.676124e-01	3.785337e-02	0.0	7.791415e-01	3.776421e-02	0.0	7.903906e-01	3.680242e-02	0.0	8.013968e-01	3.582815e-02	0.0	8.120995e-01	3.439119e-02	0.0	8.225304e-01	3.277550e-02	0.0	8.326873e-01	3.104583e-02	0.0	8.425652e-01	2.918140e-02	0.0	8.521948e-01	2.736687e-02	0.0	8.615776e-01	2.561202e-02	0.0	8.707111e-01	2.390377e-02	0.0	8.796065e-01	2.229909e-02	0.0	8.882566e-01	2.075281e-02	0.0	8.966619e-01	1.925949e-02	0.0	9.048259e-01	1.782760e-02	0.0	9.127478e-01	1.643819e-02	0.0	9.204279e-01	1.507827e-02	0.0	9.278712e-01	1.375746e-02	0.0	9.350789e-01	1.246477e-02	0.0	9.420529e-01	1.118940e-02	0.0	9.488014e-01	9.954892e-03	0.0	9.553225e-01	8.728884e-03	0.0	9.616266e-01	7.543678e-03	0.0	9.677139e-01	6.376607e-03	0.0	9.735925e-01	5.245497e-03	0.0	9.792643e-01	4.135700e-03	0.0	9.847363e-01	3.058101e-03	0.0	9.900123e-01	2.006741e-03	0.0	9.950970e-01	9.797301e-04	0.0	1.000000e+00	0.000000e+00	0.0	9.950052e-01	2.264844e-04	0.0	9.898206e-01	4.266825e-04	0.0	9.844407e-01	5.751336e-04	0.0	9.788612e-01	6.779029e-04	0.0	9.730778e-01	7.556396e-04	0.0	9.670854e-01	7.743010e-04	0.0	9.608799e-01	7.697446e-04	0.0	9.544567e-01	6.995228e-04	0.0	9.478114e-01	6.126570e-04	0.0	9.409410e-01	4.308003e-04	0.0	9.338397e-01	2.428308e-04	0.0	9.265072e-01	-5.944451e-05	0.0	9.189372e-01	-3.951608e-04	0.0	9.111330e-01	-8.634993e-04	0.0	9.030967e-01	-1.543614e-03	0.0	8.948132e-01	-2.244654e-03	0.0	8.863510e-01	-3.544014e-03	0.0	8.776475e-01	-4.950369e-03	0.0	8.687822e-01	-6.805715e-03	0.0	8.597928e-01	-9.288928e-03	0.0	8.505565e-01	-1.184034e-02	0.0	8.413891e-01	-1.540971e-02	0.0	8.319878e-01	-1.908573e-02	0.0	8.223543e-01	-2.286817e-02	0.0	8.124887e-01	-2.675276e-02	0.0	8.023083e-01	-3.048899e-02	0.0	7.916198e-01	-3.349291e-02	0.0	7.806954e-01	-3.656311e-02	0.0	7.691994e-01	-3.788533e-02	0.0	7.574302e-01	-3.902527e-02	0.0	7.454058e-01	-3.933403e-02	0.0	7.331350e-01	-3.889002e-02	0.0	7.206501e-01	-3.839029e-02	0.0	7.079887e-01	-3.733507e-02	0.0	6.951271e-01	-3.626316e-02	0.0	6.820623e-01	-3.534092e-02	0.0	6.688071e-01	-3.452791e-02	0.0	6.553789e-01	-3.376296e-02	0.0	6.417669e-01	-3.377441e-02	0.0	6.280061e-01	-3.378598e-02	0.0	6.141264e-01	-3.432192e-02	0.0	6.001361e-01	-3.524448e-02	0.0	5.860444e-01	-3.626301e-02	0.0	5.719384e-01	-3.811832e-02	0.0	5.577507e-01	-3.998437e-02	0.0	5.435826e-01	-4.239215e-02	0.0	5.294181e-01	-4.515173e-02	0.0	5.152289e-01	-4.797681e-02	0.0	5.011259e-01	-5.131105e-02	0.0	4.870155e-01	-5.464704e-02	0.0	4.729383e-01	-5.808736e-02	0.0	4.589020e-01	-6.159864e-02	0.0	4.449003e-01	-6.509105e-02	0.0	4.309070e-01	-6.839362e-02	0.0	4.169798e-01	-7.168061e-02	0.0	4.030683e-01	-7.464883e-02	0.0	3.891938e-01	-7.732887e-02	0.0	3.754246e-01	-7.996971e-02	0.0	3.616262e-01	-8.162344e-02	0.0	3.479632e-01	-8.326093e-02	0.0	3.343974e-01	-8.411997e-02	0.0	3.209470e-01	-8.429678e-02	0.0	3.076719e-01	-8.439212e-02	0.0	2.946553e-01	-8.293374e-02	0.0	2.818293e-01	-8.149672e-02	0.0	2.692867e-01	-7.953534e-02	0.0	2.570210e-01	-7.714771e-02	0.0	2.449684e-01	-7.480156e-02	0.0	2.331884e-01	-7.224303e-02	0.0	2.216338e-01	-6.973166e-02	0.0	2.102737e-01	-6.745291e-02	0.0	1.991011e-01	-6.546775e-02	0.0	1.881697e-01	-6.352545e-02	0.0	1.774236e-01	-6.200520e-02	0.0	1.669173e-01	-6.057760e-02	0.0	1.566647e-01	-5.916554e-02	0.0	1.466699e-01	-5.775090e-02	0.0	1.369284e-01	-5.637214e-02	0.0	1.275234e-01	-5.455388e-02	0.0	1.183897e-01	-5.266963e-02	0.0	1.095671e-01	-5.060028e-02	0.0	1.011468e-01	-4.798765e-02	0.0	9.296771e-02	-4.544989e-02	0.0	8.516692e-02	-4.258733e-02	0.0	7.764532e-02	-3.967704e-02	0.0	7.037129e-02	-3.680851e-02	0.0	6.337679e-02	-3.389375e-02	0.0	5.660263e-02	-3.107082e-02	0.0	4.998501e-02	-2.848845e-02	0.0	4.357609e-02	-2.600625e-02	0.0	3.733163e-02	-2.373214e-02	0.0	3.128531e-02	-2.156331e-02	0.0	2.549321e-02	-1.933595e-02	0.0	1.997682e-02	-1.701043e-02	0.0	1.479832e-02	-1.443403e-02	0.0	1.011169e-02	-1.142248e-02	0.0	5.852781e-03	-8.161778e-03	0.0	2.188404e-03	-4.488599e-03	0.0	5.820244e-01	6.283985e-02	0.0	8.657705e+01	2.667084e+01	0.0	8.180078e+01	3.567933e+01	0.0	7.561947e+01	2.503108e+01	0.0	7.331426e+01	-1.079514e+01	0.0	7.478318e+01	-2.486724e+01	0.0	8.669443e+01	-1.775697e+01	0.0	8.667398e+01	-4.301730e+00	0.0	2.791399e+01	2.478763e+01	0.0	3.800049e+01	2.784535e+01	0.0	3.041442e+01	3.526765e+01	0.0	7.253754e+01	3.405602e+01	0.0	6.816007e+01	-3.617973e+01	0.0	7.546648e+01	-4.402942e+01	0.0	8.092170e+01	-3.655862e+01	0.0	8.636409e+01	-2.841500e+01	0.0	5.595116e+01	2.365376e+01	0.0	4.845210e+01	3.046220e+01	0.0	4.578291e+01	2.048872e+01	0.0	5.483666e+01	-5.406053e+01	0.0	6.211123e+01	-6.139441e+01	0.0	6.542852e+01	-5.510821e+01	0.0	6.890638e+01	5.967842e+01	0.0	7.264973e+01	5.055317e+01	0.0	6.006412e+01	6.476910e+01	0.0	4.263197e+01	-6.260110e+01	0.0	4.421864e+01	-7.389882e+01	0.0	5.465794e+01	-6.907425e+01	0.0	6.613596e+01	-4.693661e+01	0.0	4.887609e+01	7.144347e+01	0.0	3.756719e+01	6.949027e+01	0.0	2.645001e+01	7.193014e+01	0.0	3.177156e+01	6.235167e+01	0.0	3.891533e+01	7.905075e+01	0.0	2.828109e+01	8.448509e+01	0.0	3.560935e+01	-7.077070e+01	0.0	2.414843e+01	-7.360856e+01	0.0	3.743107e+01	-8.037362e+01	0.0	-3.460552e+00	4.372223e+01	0.0	6.730741e+00	4.720765e+01	0.0	-7.831283e-01	5.431009e+01	0.0	1.969955e+01	8.952613e+01	0.0	1.497199e+01	7.978678e+01	0.0	8.554701e-01	-3.696079e-02	0.0	8.503161e-01	-2.573256e-02	0.0	8.428841e-01	-3.254883e-02	0.0	4.976050e-01	-6.645184e-02	0.0	4.810404e-01	-6.687194e-02	0.0	5.665148e-01	-1.975683e-01	0.0	5.419585e-01	-1.503594e-01	0.0	5.096841e-01	-1.847880e-01	0.0	4.445361e-01	-7.741211e-02	0.0	4.580301e-01	-7.205196e-02	0.0	1.044697e-01	-5.469725e-02	0.0	2.445737e-01	-1.846171e-01	0.0	2.179112e-01	-1.519049e-01	0.0	2.058392e-01	-1.897027e-01	0.0	2.394770e-01	5.640594e-02	0.0	2.762669e-01	6.749515e-02	0.0	2.761944e-01	7.873101e-02	0.0	2.643776e-01	7.100837e-02	0.0	7.098097e-01	4.452509e-02	0.0	7.178508e-01	5.006339e-02	0.0	7.425671e-01	6.232544e-02	0.0	7.288515e-01	5.667840e-02	0.0	7.401587e-01	4.808179e-02	0.0	9.493962e-01	5.321314e-02	0.0	9.424565e-01	3.828718e-02	0.0	9.516832e-01	3.764052e-02	0.0	6.291240e+00	4.277438e+00	0.0	9.969554e+00	3.631501e+00	0.0	8.384830e+00	7.382754e+00	0.0	4.436303e+00	3.690198e+01	0.0	2.771640e+00	9.479721e-01	0.0	2.443126e+00	1.753831e+00	0.0	2.148409e+00	1.119344e+00	0.0	2.093231e+00	6.075220e-02	0.0	1.755408e+00	3.018052e
[...]
POINT_DATA 1833

SCALARS Density double 1
LOOKUP_TABLE default
1.291296e+00	1.291401e+00	1.291974e+00	1.292233e+00	1.292171e+00	1.292110e+00	1.292098e+00	1.292076e+00	1.292041e+00	1.292012e+00	1.291993e+00	1.291988e+00	1.292003e+00	1.292043e+00	1.292099e+00	1.292156e+00	1.292202e+00	1.292238e+00	1.292265e+00	1.292284e+00	1.292297e+00	1.292306e+00	1.292313e+00	1.292319e+00	1.292324e+00	1.292331e+00	1.292338e+00	1.292347e+00	1.292359e+00	1.292373e+00	1.292392e+00	1.292417e+00	1.292448e+00	1.292485e+00	1.292527e+00	1.292576e+00	1.292621e+00	1.292652e+00	1.292650e+00	1.292626e+00	1.292584e+00	1.292532e+00	1.292486e+00	1.292434e+00	1.292378e+00	1.292342e+00	1.292390e+00	1.292274e+00	1.291773e+00	1.551131e+00	1.259251e+00	1.263796e+00	1.171896e+00	1.134608e+00	1.105191e+00	1.102069e+00	1.100558e+00	1.119455e+00	1.134936e+00	1.156367e+00	1.167943e+00	1.169506e+00	1.150567e+00	1.106167e+00	1.012622e+00	9.012582e-01	7.937653e-01	6.913933e-01	6.122659e-01	5.919446e-01	7.386078e-01	1.079922e+00	1.219010e+00	1.237412e+00	1.251196e+00	1.271755e+00	1.269266e+00	1.273047e+00	1.272007e+00	1.245034e+00	1.234514e+00	1.211227e+00	1.174907e+00	1.142466e+00	1.108410e+00	1.050898e+00	1.004595e+00	9.728835e-01	9.191645e-01	8.858934e-01	8.256573e-01	7.711337e-01	7.440094e-01	6.942978e-01	6.671813e-01	6.240133e-01	5.815320e-01	5.675964e-01	5.427000e-01	5.245964e-01	5.059585e-01	5.525976e-01	7.815135e-01	1.072423e+00	1.121419e+00	1.145228e+00	1.158773e+00	1.170878e+00	1.183637e+00	1.187007e+00	1.194472e+00	1.197081e+00	1.190324e+00	1.191697e+00	1.183585e+00	1.171916e+00	1.163628e+00	1.150587e+00	1.135565e+00	1.129813e+00	1.116334e+00	1.114683e+00	1.124061e+00	1.127013e+00	1.141076e+00	1.149966e+00	1.160814e+00	1.171077e+00	1.177523e+00	1.183548e+00	1.188736e+00	1.192392e+00	1.196258e+00	1.199804e+00	1.202831e+00	1.206141e+00	1.209270e+00	1.211943e+00	1.215352e+00	1.218394e+00	1.221359e+00	1.224580e+00	1.227488e+00	1.230716e+00	1.234090e+00	1.237030e+00	1.243071e+00	1.235764e+00	1.243970e+00	1.354994e+00	1.331642e+00	1.339539e+00	1.341496e+00	1.344468e+00	1.347752e+00	1.349761e+00	1.353230e+00	1.355477e+00	1.358544e+00	1.361925e+00	1.364885e+00	1.371362e+00	1.371515e+00	1.380453e+00	1.382363e+00	1.380080e+00	1.386390e+00	1.374884e+00	1.374358e+00	1.364855e+00	1.333115e+00	1.308162e+00	1.269564e+00	1.209355e+00	1.164095e+00	1.068854e+00	1.016174e+00	1.026703e+00	1.036293e+00	1.095245e+00	1.139210e+00	1.180495e+00	1.228255e+00	1.257507e+00	1.277617e+00	1.304905e+00	1.316183e+00	1.323100e+00	1.333002e+00	1.330292e+00	1.338912e+00	1.336800e+00	1.331469e+00	1.331893e+00	1.319747e+00	1.314240e+00	1.302924e+00	1.285315e+00	1.272009e+00	1.253903e+00	1.237139e+00	1.223103e+00	1.199058e+00	9.040688e-01	6.748957e-01	6.208918e-01	6.450382e-01	6.868603e-01	7.139576e-01	7.738146e-01	8.038663e-01	8.920244e-01	9.892473e-01	1.031260e+00	1.099386e+00	1.149539e+00	1.189492e+00	1.236976e+00	1.270013e+00	1.282416e+00	1.298161e+00	1.303873e+00	1.290466e+00	1.280689e+00	1.271002e+00	1.243139e+00	1.231326e+00	1.235847e+00	1.221536e+00	1.245518e+00	1.275269e+00	1.298238e+00	1.338839e+00	1.365523e+00	1.392156e+00	1.423651e+00	1.442970e+00	1.458694e+00	1.472093e+00	1.476181e+00	1.481611e+00	1.490145e+00	1.503369e+00	1.530786e+00	1.575961e+00	1.592688e+00	1.700571e+00	1.135281e+00	1.292073e+00	1.292153e+00	1.292044e+00	1.292003e+00	1.292301e+00	1.292077e+00	1.291656e+00	1.291901e+00	1.292029e+00	1.291839e+00	1.292149e+00	1.292353e+00	1.292339e+00	1.292313e+00	1.292298e+00	1.292075e+00	1.292063e+00	1.292016e+00	1.292432e+00	1.292433e+00	1.292400e+00	1.292082e+00	1.292093e+00	1.292057e+00	1.292526e+00	1.292538e+00	1.292481e+00	1.292359e+00	1.292020e+00	1.291961e+00	1.291917e+00	1.291918e+00	1.291987e+00	1.291963e+00	1.292584e+00	1.292641e+00	1.292585e+00	1.291611e+00	1.291636e+00	1.291730e+00	1.291962e+00	1.291920e+00	1.347177e+00	1.348989e+00	1.328478e+00	1.284691e+00	1.265211e+00	1.293630e+00	1.301009e+00	1.272018e+00	1.214871e+00	1.233541e+00	1.271297e+00	1.204773e+00	1.238130e+00	1.249034e+00	1.252053e+00	1.175577e+00	1.185641e+00	1.211174e+00	1.181935e+00	1.180288e+00	1.173248e+00	1.176732e+00	1.161809e+00	1.244748e+00	1.232846e+00	1.236306e+00	1.291572e+00	1.291023e+00	1.291081e+00	1.291439e+00	1.292229e+00	1.288033e+00	1.293012e+00	1.276100e+00	1.287515e+00	1.267062e+00	1.303982e+00	1.300540e+00	1.282828e+00	1.290565e+00	1.294302e+00	1.284855e+00	1.263231e+00	1.242347e+00	1.289089e+00	1.234227e+00	1.236968e+00	1.238291e+00	1.247050e+00	1.247127e+00	1.243103e+00	1.258235e+00	1.284241e+00	1.250188e+00	1.373943e+00	1.365056e+00	1.365053e+00	1.577436e+00	1.577036e+00	1.597928e+00	1.305679e+00	1.312638e+00	1.311140e+00	1.623016e+00	1.599826e+00	1.173387e+00	1.272267e+00	1.225769e+00	1.261224e+00	1.309608e+00	1.331015e+00	1.219374e+00	1.372189e+00	1.375126e+00	1.155818e+00	1.101127e+00	1.117371e+00	1.380314e+00	1.380150e+00	1.379297e+00	1.380422e+00	1.158488e+00	1.117175e+00	1.149831e+00	1.374292e+00	1.376152e+00	1.377595e+00	1.372708e+00	1.364273e+00	1.361713e+00	1.364524e+00	1.364444e+00	1.367629e+00	1.366459e+00	1.362746e+00	1.049990e+00	1.080700e+00	1.357144e+00	1.353289e+00	1.355576e+00	1.282077e+00	1.273382e+00	1.458041e+00	1.490106e+00	1.474917e+00	1.336308e+00	1.328537e+00	1.350958e+00	1.332219e+00	1.329214e+00	8.031360e-01	9.006561e-01	8.546234e-01	1.205537e+00	1.189260e+00	1.163202e+00	1.148993e+00	1.116809e+00	1.137966e+00	1.108612e+00	1.245706e+00	1.256362e+00	1.233223e+00	1.234606e+00	1.046693e+00	1.080945e+00	1.024570e+00	1.268281e+00	1.285426e+00	1.275612e+00	9.642961e-01	9.930493e-01	9.307710e-01	9.839260e-01	1.276382e+00	8.804338e-01	9.027067e-01	1.276411e+00	1.278982e+00	1.269134e+00	1.315166e+00	1.317701e+00	1.307462e+00	1.295831e+00	1.219000e+00	1.222135e+00	1.253951e+00	1.258723e+00	1.244267e+00	1.222383e+00	1.217325e+00	1.213719e+00	1.218104e+00	1.321772e+00	1.326330e+00	1.329229e+00	1.253190e+00	1.274053e+00	1.332590e+00	1.330448e+00	1.328664e+00	1.194053e+00	1.335428e+00	1.040977e+00	9.522511e-01	9.279262e-01	1.326777e+00	1.322107e+00	6.473092e-01	7.520746e-01	6.646665e-01	7.228392e-01	6.863389e-01	1.154009e+00	1.086658e+00	9.133085e-01	8.400009e-01	8.296259e-01	7.832737e-01	8.399166e-01	8.256326e-01	1.308379e+00	1.292171e+00	1.208579e+00	1.232143e+00	1.240947e+00	9.054336e-01	1.062428e+00	1.205179e+00	9.761526e-01	1.004134e+00	1.073450e+00	1.069266e+00	9.632338e-01	1.135914e+00	1.239738e+00	1.271427e+00	1.214674e+00	1.269027e+00	1.284019e+00	1.296472e+00	1.295352e+00	1.295980e+00	1.529851e+00	1.551819e+00	1.233778e+00	1.214097e+00	1.204592e+00	1.215387e+00	1.298739e+00	1.297384e+00	1.298789e+00	1.300874e+00	1.308376e+00	1.332220e+00	1.223904e+00	1.225337e+00	1.228186e+00	1.238818e+00	1.234628e+00	1.356976e+00	1.330821e+00	1.323882e+00	1.246024e+00	1.277353e+00	1.286393e+00	1.197123e+00	1.202058e+00	1.194383e+00	1.252918e+00	1.282515e+00	1.266901e+00	1.400156e+00	1.398925e+00	1.416804e+00	1.416792e+00	1.250385e+00	1.262029e+00	1.274356e+00	9.031403e-01	1.002024e+00	9.475674e-01	1.009840e+00	1.141981e+00	1.156989e+00	1.148997e+00	1.254474e+00	1.222731e+00	1.236382e+00	1.195470e+00	1.193170e+00	1.200212e+00	1.155588e+00	1.200069e+00	1.196268e+00	1.202945e+00	1.151338e+00	1.134467e+00	1.037852e+00	1.110334e+00	1.211207e+00	1.140174e+00	1.191183e+00	1.194796e+00	1.186504e+00	1.154117e+00	1.154731e+00	1.195832e+00	1.197324e+00	1.250111e+00	1.291329e+00	1.290755e+00	1.291678e+00	1.121673e+00	1.112448e+00	1.345622e+00	1.345835e+00	1.351642e+00	1.350253e+00	1.348725e+00	1.098998e+00	1.259979e+00	1.072643e+00	1.170907e+00	1.132417e+00	1.146227e+00	1.256528e+00	1.247069e+00	1.273755e+00	1.309119e+00	1.293729e+00	1.272066e+00	1.292655e+00	1.292626e+00	1.272191e+00	1.295244e+00	1.292659e+00	1.292689e+00	1.292641e+00	1.251515e+00	1.247716e+00	1.230299e+00	1.295113e+00	1.287327e+00	1.289676e+00	1.280631e+00	1.292549e+00	1.292552e+00	1.292615e+00	1.435194e+00	1.294834e+00	1.293882e+00	1.294046e+00	1.468027e+00	1.444539e+00	1.450751e+00	1.292723e+00	1.292679e+00	1.292693e+00	1.483355e+00	1.492095e+00	1.501878e+00	1.495940e+00	1.499099e+00	1.522716e+00	1.508953e+00	1.516818e+00	1.491442e+00	1.560275e+00	1.547445e+00	1.328976e+00	1.322400e+00	1.336757e+00	1.292677e+00	1.292618e+00	1.292864e+00	1.292856e+00	1.292917e+00	1.292539e+00	1.292494e+00	1.292481e+00	1.296999e+00	1.301048e+00	1.300979e+00	1.297242e+00	1.292502e+00	1.292748e+00	1.292850e+00	1.292642e+00	1.292439e+00	1.292426e+00	1.292442e+00	1.292486e+00	1.292395e+00	1.292414e+00	1.292381e+00	1.292389e+00	1.292373e+00	1.292357e+00	1.292338e+00	1.292334e+00	1.292313e+00	1.292320e+00	1.292325e+00	1.292299e+00	1.292281e+00	1.292278e+00	1.136380e+00	1.191361e+00	1.190952e+00	1.178307e+00	1.161044e+00	1.170007e+00	1.292165e+00	1.292090e+00	1.292174e+00	1.292299e+00	1.291888e+00	1.292069e+00	1.292059e+00	1.292169e+00	1.292234e+00	1.292262e+00	1.130186e+00	1.155445e+00	1.128598e+00	1.292191e+00	1.174641e+00	1.182093e+00	1.196314e+00	1.055777e+00	1.137617e+00	8.012743e-01	9.186439e-01	8.828020e-01	1.292094e+00	1.292133e+00	1.286032e+00	1.281937e+00	1.282727e+00	1.288466e+00	1.289509e+00	1.288046e+00	1.292092e+00	1.292044e+00	7.880144e-01	7.306842e-01	7.253463e-01	6.867353e-01	6.755560e-01	1.292035e+00	5.914174e-01	5.727659e-01	5.521726e-01	5.422975e-01	5.315988e-01	7.006704e-01	1.035634e+00	8.278150e-01	1.198650e+00	5.843238e-01	6.170827e-01	1.204495e+00	1.152755e+00	1.161724e+00	1.163854e+00	1.195064e+00	1.140545e+00	1.292339e+00	1.292353e+00	1.292368e+00	7.374009e-01	8.925320e-01	1.291956e+00	1.291856e+00	1.280893e+00	1.274675e+00	1.239193e+00	1.358113e+00	1.351763e+00	1.356856e+00	1.292818e+00	1.292703e+00	1.293097e+00	1.292413e+00	1.292400e+00	1.292605e+00	1.292717e+00	1.292253e+00	1.292549e+00	1.292612e+00	1.292755e+00	1.292616e+00	1.292988e+00	1.293272e+00	1.293056e+00	1.291610e+00	1.291473e+00	1.291907e+00	1.291729e+00	1.292410e+00	1.292362e+00	1.291662e+00	1.291878e+00	1.291945e+00	1.293004e+00	1.293220e+00	1.293081e+00	1.293505e+00	1.293511e+00	1.147760e+00	1.146024e+00	1.292246e+00	1.292296e+00	1.292948e+00	1.296556e+00	1.300002e+00	1.297829e+00	1.291982e+00	1.291830e+00	1.291820e+00	1.292057e+00	1.291604e+00	1.287829e+00	1.289157e+00	1.292500e+00	1.292417e+00	1.292341e+00	1.292589e+00	1.292534e+00	1.292353e+00	1.292377e+00	1.292292e+00	1.292324e+00	1.292260e+00	1.291953e+00	1.291852e+00	1.291842e+00	1.292665e+00	1.292777e+00	1.292717e+00	1.292748e+00	1.292120e+00	1.292079e+00	1.292042e+00	1.291854e+00	1.291780e+00	1.291890e+00	1.291996e+00	1.292029e+00	1.291773e+00	1.291760e+00	1.292261e+00	1.292348e+00	1.292422e+00	1.292508e+00	1.292487e+00	1.292606e+00	1.292437e+00	1.292419e+00	1.292117e+00	1.292353e+00	1.292131e+00	1.292793e+00	1.292644e+00	1.292701e+00	1.267131e+00	1.189184e+00	1.194670e+00	1.143473e+00	1.291724e+00	1.291434e+00	1.291965e+00	1.292856e+00	1.292673e+00	1.291961e+00	1.292049e+00	1.292385e+00	1.292477e+00	1.292478e+00	1.291670e+00	1.291956e+00	1.291859e+00	1.291890e+00	1.293344e+00	1.290217e+00	1.289441e+00	1.291681e+00	1.291658e+00	1.292869e+00	1.293177e+00	1.294502e+00	1.293774e+00	1.295182e+00	1.292260e+00	1.292353e+00	1.291929e+00	1.291982e+00	1.292315e+00	1.292321e+00	1.292251e+00	1.292464e+00	1.292409e+00	1.292348e+00	1.292320e+00	1.292380e+00	1.292222e+00	1.292142e+00	1.292746e+00	1.291959e+00	1.292591e+00	1.292679e+00	1.291784e+00	1.291734e+00	1.292334e+00	1.292097e+00	1.292123e+00	1.292360e+00	1.292447e+00	1.291398e+00	1.292381e+00	1.292761e+00	1.292832e+00	1.292779e+00	1.291931e+00	1.291586e+00	1.291740e+00	1.291675e+00	1.292541e+00	1.292614e+00	1.292535e+00	1.291440e+00	1.291797e+00	1.291947e+00	1.291891e+00	1.291107e+00	1.291153e+00	1.292433e+00	1.292526e+00	1.292480e+00	1.292242e+00	1.292773e+00	1.292693e+00	1.157843e+00	1.151395e+00	1.141505e+00	1.292295e+00	1.292528e+00	1.292198e+00	1.291896e+00	1.290900e+00	1.292858e+00	1.292699e+00	1.292621e+00	1.292662e+00	1.292604e+00	1.292757e+00	1.292000e+00	1.291961e+00	1.291976e+00	1.291765e+00	1.293829e+00	1.293584e+00	1.299198e+00	1.330855e+00	1.292222e+00	1.292437e+00	1.291887e+00	1.292396e+00	1.292667e+00	1.292446e+00	1.291824e+00	1.292408e+00	1.292379e+00	1.291204e+00	1.290527e+00	1.292511e+00	1.292963e+00	1.292860e+00	1.292021e+00	1.292365e+00	1.369039e+00	1.357747e+00	1.349252e+00	1.293659e+00	1.294250e+00	1.294998e+00	1.282184e+00	1.259323e+00	1.272661e+00	1.348071e+00	1.346247e+00	1.293295e+00	1.290105e+00	1.291494e+00	1.289987e+00	1.291807e+00	1.291018e+00	1.290940e+00	1.293193e+00	1.294709e+00	1.292002e+00	1.293991e+00	1.291215e+00	1.287889e+00	1.292168e+00	1.291283e+00	1.289683e+00	1.293647e+00	1.286563e+00	1.291704e+00	1.328479e+00	1.332328e+00	1.341921e+00	1.294578e+00	1.292553e+00	1.296786e+00	1.294222e+00	1.293356e+00	1.293118e+00	1.286784e+00	1.166311e+00	1.289333e+00	1.295078e+00	1.294527e+00	1.134414e+00	1.295156e+00	1.295372e+00	1.206860e+00	1.243098e+00	1.234324e+00	1.294807e+00	1.287159e+00	1.284650e+00	1.288479e+00	1.292105e+00	1.293382e+00	1.284451e+00	1.290599e+00	1.278388e+00	1.294330e+00	1.291095e+00	1.293025e+00	1.293544e+00	1.295925e+00	1.296151e+00	1.300975e+00	1.297949e+00	1.359659e+00	1.336564e+00	1.289247e+00	1.299433e+00	1.302373e+00	1.296849e+00	1.295467e+00	1.300531e+00	1.292449e+00	1.299048e+00	1.294989e+00	1.298313e+00	1.302043e+00	1.281125e+00	1.287134e+00	8.718062e-01	1.291648e+00	1.292563e+00	1.275657e+00	1.259618e+00	1.284996e+00	1.296061e+00	1.424311e+00	1.434327e+00	1.388641e+00	1.295550e+00	9.807250e-01	1.231465e+00	1.212941e+00	1.242265e+00	1.291209e+00	1.293884e+00	1.016344e+00	9.786028e-01	1.285463e+00	1.300349e+00	1.286307e+00	1.300617e+00	1.304484e+00	1.308386e+00	1.294904e+00	1.199266e+00	1.256169e+00	1.203166e+00	1.202565e+00	1.204282e+00	1.304729e+00	1.284378e+00	1.299286e+00	1.300441e+00	1.301183e+00	1.297965e+00	1.294352e+00	1.316286e+00	1.313664e+00	1.250912e+00	1.319365e+00	1.303006e+00	1.297691e+00	1.290984e+00	1.302322e+00	1.203995e+00	1.181544e+00	1.186283e+00	1.238754e+00	1.233050e+00	1.307643e+00	1.300824e+00	1.312520e+00	1.302481e+00	1.306814e+00	1.303564e+00	1.530064e+00	1.453363e+00	1.500709e+00	1.286009e+00	1.257440e+00	1.297031e+00	1.304073e+00	1.317176e+00	1.321474e+00	1.284595e+00	1.282637e+00	1.210092e+00	1.209875e+00	1.218234e+00	7.560021e-01	8.011529e-01	1.275477e+00	1.310929e+00	1.259130e+00	1.310338e+00	1.270889e+00	1.238873e+00	1.269016e+00	1.233250e+00	1.165050e+00	1.205185e+00	1.146842e+00	1.301386e+00	1.309880e+00	1.323909e+00	1.350486e+00	1.343854e+00	1.361289e+00	1.314102e+00	1.324275e+00	1.309763e+00	1.343159e+00	1.331125e+00	1.253665e+00	1.263616e+00	1.254283e+00	1.145013e+00	1.246541e+00	1.290034e+00	1.300242e+00	1.303025e+00	1.298296e+00	1.281001e+00	1.258377e+00	1.274422e+00	1.274039e+00	1.288927e+00	1.322379e+00	1.293423e+00	1.290441e+00	1.317735e+00	1.312737e+00	1.161699e+00	9.064781e-01	9.739603e-01	8.830295e-01	1.292725e+00	1.274123e+00	1.272262e+00	1.260253e+00	1.186481e+00	1.149495e+00	1.184426e+00	1.333984e+00	1.381074e+00	1.378618e+00	1.310920e+00	1.242581e+00	1.298139e+00	1.372731e+00	1.312019e+00	1.187880e+00	1.195297e+00	1.069972e+00	1.183225e+00	1.206981e+00	1.240005e+00	1.240702e+00	1.197429e+00	1.317365e+00	1.323190e+00	1.288214e+00	1.296013e+00	1.282569e+00	1.275230e+00	1.388416e+00	1.390232e+00	1.410116e+00	1.418336e+00	1.277726e+00	1.312326e+00	1.354036e+00	1.386124e+00	1.381114e+00	1.323722e+00	1.314984e+00	1.299829e+00	1.366043e+00	1.386945e+00	1.298798e+00	1.275228e+00	1.208225e+00	1.216669e+00	1.249671e+00	1.256611e+00	1.270175e+00	1.264475e+00	1.264076e+00	1.278546e+00	1.079056e+00	1.205111e+00	1.357847e+00	5.252115e-01	1.267003e+00	1.263599e+00	1.264810e+00	1.319449e+00	1.325327e+00	1.313279e+00	1.306277e+00	1.328072e+00	1.289909e+00	1.180329e+00	1.288555e+00	1.290426e+00	1.288572e+00	1.251145e+00	1.177853e+00	1.124478e+00	1.167779e+00	1.157664e+00	1.192485e+00	1.312885e+00	1.359502e+00	1.296578e+00	1.363501e+00	1.183377e+00	1.199976e+00	1.235497e+00	1.140683e+00	1.276039e+00	1.287956e+00	1.369175e+00	1.420915e+00	1.389307e+00	1.282734e+00	1.311324e+00	1.233683e+00	1.222417e+00	1.185710e+00	1.176632e+00	1.180331e+00	9.896904e-01	7.931554e-01	8.128109e-01	7.179212e-01	1.249618e+00	1.175782e+00	1.324970e+00	1.263547e+00	1.288247e+00	1.245040e+00	1.220428e+00	1.145170e+00	1.289792e+00	1.240914e+00	1.260839e+00	1.124460e+00	1.182240e+00	1.323190e+00	1.279147e+00	1.389797e+00	1.323736e+00	1.317598e+00	1.326010e+00	1.315241e+00	1.331392e+00	1.342108e+00	1.357363e+00	1.372465e+00	1.407326e+00	1.336261e+00	1.334820e+00	1.075049e+00	1.073922e+00	1.106560e+00	1.207995e+00	1.282251e+00	1.288398e+00	1.279990e+00	1.277387e+00	1.319675e+00	1.311168e+00	1.336393e+00	1.326742e+00	1.299223e+00	1.186081e+00	1.186965e+00	1.169589e+00	1.247212e+00	1.239989e+00	1.124326e+00	1.298518e+00	1.483568e+00	1.446659e+00	1.422226e+00	1.402260e+00	1.206091e+00	1.219534e+00	1.271000e+00	1.228386e+00	1.357961e+00	1.363592e+00	1.366193e+00	1.179402e+00	5.803352e-01	5.572770e-01	1.279050e+00	1.300562e+00	1.267747e+00	1.287770e+00	1.414865e+00	1.369847e+00	1.356829e+00	1.166864e+00	1.237167e+00	1.264980e+00	1.126227e+00	1.123658e+00	1.096288e+00	1.016073e+00	1.412446e+00	1.428803e+00	1.019897e+00	9.933999e-01	9.490414e-01	1.272805e+00	1.284230e+00	1.318188e+00	1.325973e+00	1.314032e+00	1.277737e+00	1.269499e+00	1.279249e+00	1.522498e+00	1.516165e+00	1.348893e+00	1.342847e+00	1.378466e+00	1.263836e+00	1.286061e+00	1.288434e+00	1.451481e+00	1.343046e+00	1.337496e+00	1.334833e+00	1.170756e+00	1.112082e+00	1.217088e+00	1.234257e+00	1.215989e+00	1.194091e+00	1.343490e+00	1.316889e+00	1.279312e+00	8.577233e-01	8.003841e-01	1.183363e+00	9.410393e-01	1.260859e+00	1.251560e+00	1.228093e+00	9.243346e-01	8.774632e-01	9.098203e-01	1.345018e+00	1.350959e+00	1.346162e+00	1.212122e+00	1.200028e+00	1.273053e+00	6.298859e-01	7.332380e-01	1.255048e+00	1.250143e+00	1.155898e+00	7.550164e-01	1.022541e+00	1.207650e+00	1.205948e+00	1.242667e+00	1.229849e+00	1.126182e+00	1.137719e+00	1.312274e+00	1.297860e+00	1.321092e+00	1.257950e+00	1.251010e+00	1.252558e+00	1.322639e+00	1.310860e+00	1.322667e+00	1.450857e+00	9.601866e-01	9.219980e-01	1.101860e+00	1.115299e+00	1.054553e+00	1.234892e+00	1.292478e+00	1.338363e+00	1.382117e+00	1.106530e+00	6.913297e-01	6.276931e-01	6.640715e-01	1.256543e+00	1.448419e+00	1.555787e+00	1.287466e+00	1.281446e+00	1.286683e+00	7.479331e-01	1.332485e+00	1.176240e+00	1.246235e+00	1.245961e+00	1.254039e+00	1.173192e+00	1.295991e+00	1.331016e+00	1.224562e+00	1.242613e+00	1.463429e+00	1.438680e+00	1.203907e+00	1.215446e+00	1.189313e+00	1.243967e+00	1.074151e+00	1.077025e+00	1.249235e+00	1.236409e+00	1.349206e+00	1.341143e+00	1.343995e+00	1.358391e+00	1.249720e+00	1.336301e+00	1.396466e+00	1.362082e+00	1.411811e+00	1.433941e+00	1.306505e+00	1.295927e+00	1.203604e+00	1.186602e+00	1.185777e+00	1.265977e+00	1.240131e+00	1.228479e+00	1.211970e+00	1.218544e+00	1.316663e+00	1.448086e+00	1.271840e+00	1.275519e+00	1.262145e+00	9.205418e-01	8.622539e-01	9.274529e-01	7.991253e-01	7.560786e-01	7.646968e-01	7.302107e-01	5.968820e-01	6.257653e-01	1.330751e+00	1.317953e+00	1.237731e+00	1.284350e+00	1.262491e+00	1.257686e+00	1.198879e+00	1.266363e+00	1.351508e+00	1.324224e+00	1.357795e+00	1.327008e+00	1.371180e+00	1.370582e+00	1.356357e+00	1.104736e+00	6.296315e-01	7.034326e-01	7.998199e-01	8.271557e-01	7.513857e-01	8.725539e-01	1.473339e+00	1.480783e+00	1.082429e+00	1.051221e+00	9.864414e-01	1.217385e+00	1.350255e+00	1.365895e+00	1.282455e+00	1.285223e+00	1.283897e+00	1.269028e+00	1.256618e+00	1.264934e+00	1.455048e+00	1.308702e+00	1.298125e+00	1.290099e+00	1.154191e+00	1.272756e+00	1.082634e+00	1.255276e+00	8.345462e-01	1.227333e+00	1.252916e+00	1.315427e+00	1.318374e+00	1.316871e+00	1.315240e+00	1.301902e+00	1.315735e+00	1.302196e+00	1.332032e+00	1.335414e+00	1.331429e+00	1.327396e+00	1.332542e+00	1.214662e+00	1.221678e+00	9.365918e-01	1.104751e+00	7.751804e-01	1.185710e+00	1.145051e+00	1.201728e+00	1.194740e+00	1.199377e+00	1.260483e+00	1.241323e+00	1.266173e+00	1.271353e+00	1.159810e+00	1.179779e+00	1.138540e+00	1.163321e+00	1.172917e+00	1.179597e+00	1.215142e+00	1.197317