# vtk DataFile Version 3.0
vtk output
ASCII
DATASET UNSTRUCTURED_GRID
POINTS 198 double
0.000000e+00	0.000000e+00	0.0	3.196708e-03	3.844614e-03	0.0	6.575086e-03	7.766339e-03	0.0	1.097142e-02	1.086703e-02	0.0	1.557188e-02	1.400888e-02	0.0	2.076874e-02	1.653742e-02	0.0	2.617436e-02	1.910391e-02	0.0	3.197971e-02	2.127536e-02	0.0	3.800515e-02	2.347208e-02	0.0	4.433088e-02	2.547533e-02	0.0	5.088065e-02	2.751599e-02	0.0	5.767127e-02	2.955343e-02	0.0	6.466422e-02	3.172532e-02	0.0	7.186347e-02	3.403120e-02	0.0	7.926614e-02	3.648740e-02	0.0	8.691255e-02	3.897378e-02	0.0	9.494702e-02	4.101082e-02	0.0	1.033031e-01	4.265682e-02	0.0	1.120407e-01	4.358950e-02	0.0	1.210491e-01	4.389639e-02	0.0	1.303323e-01	4.349234e-02	0.0	1.398587e-01	4.293061e-02	0.0	1.496161e-01	4.202740e-02	0.0	1.596256e-01	4.110085e-02	0.0	1.699193e-01	4.065062e-02	0.0	1.804663e-01	4.023425e-02	0.0	1.912471e-01	4.038748e-02	0.0	2.022524e-01	4.137270e-02	0.0	2.134988e-01	4.237950e-02	0.0	2.247756e-01	4.472064e-02	0.0	2.362469e-01	4.732181e-02	0.0	2.478952e-01	5.014793e-02	0.0	2.596291e-01	5.352953e-02	0.0	2.715690e-01	5.697050e-02	0.0	2.837298e-01	6.038983e-02	0.0	2.960947e-01	6.381650e-02	0.0	3.086474e-01	6.727183e-02	0.0	3.215683e-01	6.997175e-02	0.0	3.346548e-01	7.270630e-02	0.0	3.479820e-01	7.496080e-02	0.0	3.615488e-01	7.667119e-02	0.0	3.752491e-01	7.839841e-02	0.0	3.891657e-01	7.898997e-02	0.0	4.031940e-01	7.954867e-02	0.0	4.173142e-01	7.949063e-02	0.0	4.315122e-01	7.877833e-02	0.0	4.457759e-01	7.805051e-02	0.0	4.599917e-01	7.620526e-02	0.0	4.742447e-01	7.435518e-02	0.0	4.884563e-01	7.209788e-02	0.0	5.026164e-01	6.946503e-02	0.0	5.167684e-01	6.683097e-02	0.0	5.308081e-01	6.375560e-02	0.0	5.448112e-01	6.068826e-02	0.0	5.587512e-01	5.757898e-02	0.0	5.726128e-01	5.442501e-02	0.0	5.863951e-01	5.128907e-02	0.0	6.001435e-01	4.844629e-02	0.0	6.137901e-01	4.564706e-02	0.0	6.273668e-01	4.315247e-02	0.0	6.408914e-01	4.113520e-02	0.0	6.542709e-01	3.913958e-02	0.0	6.675960e-01	3.813893e-02	0.0	6.807709e-01	3.732713e-02	0.0	6.937742e-01	3.681857e-02	0.0	7.066046e-01	3.693465e-02	0.0	7.192367e-01	3.704895e-02	0.0	7.316579e-01	3.737041e-02	0.0	7.438638e-01	3.773629e-02	0.0	7.558502e-01	3.794433e-02	0.0	7.676124e-01	3.785337e-02	0.0	7.791415e-01	3.776421e-02	0.0	7.903906e-01	3.680242e-02	0.0	8.013968e-01	3.582815e-02	0.0	8.120995e-01	3.439119e-02	0.0	8.225304e-01	3.277550e-02	0.0	8.326873e-01	3.104583e-02	0.0	8.425652e-01	2.918140e-02	0.0	8.521948e-01	2.736687e-02	0.0	8.615776e-01	2.561202e-02	0.0	8.707111e-01	2.390377e-02	0.0	8.796065e-01	2.229909e-02	0.0	8.882566e-01	2.075281e-02	0.0	8.966619e-01	1.925949e-02	0.0	9.048259e-01	1.782760e-02	0.0	9.127478e-01	1.643819e-02	0.0	9.204279e-01	1.507827e-02	0.0	9.278712e-01	1.375746e-02	0.0	9.350789e-01	1.246477e-02	0.0	9.420529e-01	1.118940e-02	0.0	9.488014e-01	9.954892e-03	0.0	9.553225e-01	8.728884e-03	0.0	9.616266e-01	7.543678e-03	0.0	9.677139e-01	6.376607e-03	0.0	9.735925e-01	5.245497e-03	0.0	9.792643e-01	4.135700e-03	0.0	9.847363e-01	3.058101e-03	0.0	9.900123e-01	2.006741e-03	0.0	9.950970e-01	9.797301e-04	0.0	1.000000e+00	0.000000e+00	0.0	9.950052e-01	2.264844e-04	0.0	9.898206e-01	4.266825e-04	0.0	9.844407e-01	5.751336e-04	0.0	9.788612e-01	6.779029e-04	0.0	9.730778e-01	7.556396e-04	0.0	9.670854e-01	7.743010e-04	0.0	9.608799e-01	7.697446e-04	0.0	9.544567e-01	6.995228e-04	0.0	9.478114e-01	6.126570e-04	0.0	9.409410e-01	4.308003e-04	0.0	9.338397e-01	2.428308e-04	0.0	9.265072e-01	-5.944451e-05	0.0	9.189372e-01	-3.951608e-04	0.0	9.111330e-01	-8.634993e-04	0.0	9.030967e-01	-1.543614e-03	0.0	8.948132e-01	-2.244654e-03	0.0	8.863510e-01	-3.544014e-03	0.0	8.776475e-01	-4.950369e-03	0.0	8.687822e-01	-6.805715e-03	0.0	8.597928e-01	-9.288928e-03	0.0	8.505565e-01	-1.184034e-02	0.0	8.413891e-01	-1.540971e-02	0.0	8.319878e-01	-1.908573e-02	0.0	8.223543e-01	-2.286817e-02	0.0	8.124887e-01	-2.675276e-02	0.0	8.023083e-01	-3.048899e-02	0.0	7.916198e-01	-3.349291e-02	0.0	7.806954e-01	-3.656311e-02	0.0	7.691994e-01	-3.788533e-02	0.0	7.574302e-01	-3.902527e-02	0.0	7.454058e-01	-3.933403e-02	0.0	7.331350e-01	-3.889002e-02	0.0	7.206501e-01	-3.839029e-02	0.0	7.079887e-01	-3.733507e-02	0.0	6.951271e-01	-3.626316e-02	0.0	6.820623e-01	-3.534092e-02	0.0	6.688071e-01	-3.452791e-02	0.0	6.553789e-01	-3.376296e-02	0.0	6.417669e-01	-3.377441e-02	0.0	6.280061e-01	-3.378598e-02	0.0	6.141264e-01	-3.432192e-02	0.0	6.001361e-01	-3.524448e-02	0.0	5.860444e-01	-3.626301e-02	0.0	5.719384e-01	-3.811832e-02	0.0	5.577507e-01	-3.998437e-02	0.0	5.435826e-01	-4.239215e-02	0.0	5.294181e-01	-4.515173e-02	0.0	5.152289e-01	-4.797681e-02	0.0	5.011259e-01	-5.131105e-02	0.0	4.870155e-01	-5.464704e-02	0.0	4.729383e-01	-5.808736e-02	0.0	4.589020e-01	-6.159864e-02	0.0	4.449003e-01	-6.509105e-02	0.0	4.309070e-01	-6.839362e-02	0.0	4.169798e-01	-7.168061e-02	0.0	4.030683e-01	-7.464883e-02	0.0	3.891938e-01	-7.732887e-02	0.0	3.754246e-01	-7.996971e-02	0.0	3.616262e-01	-8.162344e-02	0.0	3.479632e-01	-8.326093e-02	0.0	3.343974e-01	-8.411997e-02	0.0	3.209470e-01	-8.429678e-02	0.0	3.076719e-01	-8.439212e-02	0.0	2.946553e-01	-8.293374e-02	0.0	2.818293e-01	-8.149672e-02	0.0	2.692867e-01	-7.953534e-02	0.0	2.570210e-01	-7.714771e-02	0.0	2.449684e-01	-7.480156e-02	0.0	2.331884e-01	-7.224303e-02	0.0	2.216338e-01	-6.973166e-02	0.0	2.102737e-01	-6.745291e-02	0.0	1.991011e-01	-6.546775e-02	0.0	1.881697e-01	-6.352545e-02	0.0	1.774236e-01	-6.200520e-02	0.0	1.669173e-01	-6.057760e-02	0.0	1.566647e-01	-5.916554e-02	0.0	1.466699e-01	-5.775090e-02	0.0	1.369284e-01	-5.637214e-02	0.0	1.275234e-01	-5.455388e-02	0.0	1.183897e-01	-5.266963e-02	0.0	1.095671e-01	-5.060028e-02	0.0	1.011468e-01	-4.798765e-02	0.0	9.296771e-02	-4.544989e-02	0.0	8.516692e-02	-4.258733e-02	0.0	7.764532e-02	-3.967704e-02	0.0	7.037129e-02	-3.680851e-02	0.0	6.337679e-02	-3.389375e-02	0.0	5.660263e-02	-3.107082e-02	0.0	4.998501e-02	-2.848845e-02	0.0	4.357609e-02	-2.600625e-02	0.0	3.733163e-02	-2.373214e-02	0.0	3.128531e-02	-2.156331e-02	0.0	2.549321e-02	-1.933595e-02	0.0	1.997682e-02	-1.701043e-02	0.0	1.479832e-02	-1.443403e-02	0.0	1.011169e-02	-1.142248e-02	0.0	5.852781e-03	-8.161778e-03	0.0	2.188404e-03	-4.488599e-03	0.0	
CELLS 198	594
2	101	102	2	102	103	2	103	104	2	104	105	2	105	106	2	106	107	2	107	108	2	108	109	2	109	110	2	110	111	2	111	112	2	112	113	2	113	114	2	114	115	2	115	116	2	116	117	2	117	118	2	118	119	2	119	120	2	120	121	2	121	122	2	122	123	2	123	124	2	124	125	2	125	126	2	126	127	2	127	128	2	128	129	2	129	130	2	130	131	2	131	132	2	132	133	2	133	134	2	134	135	2	135	136	2	136	137	2	137	138	2	138	139	2	139	140	2	140	141	2	141	142	2	142	143	2	143	144	2	144	145	2	145	146	2	146	147	2	147	148	2	148	149	2	149	150	2	150	151	2	151	152	2	152	153	2	153	154	2	154	155	2	155	156	2	156	157	2	157	158	2	158	159	2	159	160	2	160	161	2	161	162	2	162	163	2	163	164	2	164	165	2	165	166	2	166	167	2	167	168	2	168	169	2	169	170	2	170	171	2	171	172	2	172	173	2	173	174	2	174	175	2	175	176	2	176	177	2	40	41	2	41	42	2	42	43	2	43	44	2	44	45	2	45	46	2	46	47	2	47	48	2	48	49	2	49	50	2	50	51	2	51	52	2	52	53	2	53	54	2	54	55	2	55	56	2	56	57	2	57	58	2	58	59	2	59	60	2	60	61	2	61	62	2	62	63	2	63	64	2	64	65	2	65	66	2	66	67	2	67	68	2	68	69	2	69	70	2	70	71	2	71	72	2	72	73	2	73	74	2	74	75	2	75	76	2	76	77	2	77	78	2	78	79	2	79	80	2	80	81	2	81	82	2	82	83	2	83	84	2	84	85	2	85	86	2	86	87	2	87	88	2	88	89	2	89	90	2	90	91	2	91	92	2	92	93	2	93	94	2	94	95	2	95	96	2	96	97	2	97	98	2	98	99	2	99	100	2	100	101	2	0	1	2	1	2	2	2	3	2	3	4	2	4	5	2	5	6	2	6	7	2	7	8	2	8	9	2	9	10	2	10	11	2	11	12	2	12	13	2	13	14	2	14	15	2	15	16	2	16	17	2	17	18	2	18	19	2	19	20	2	20	21	2	21	22	2	22	23	2	23	24	2	24	25	2	25	26	2	26	27	2	27	28	2	28	29	2	29	30	2	30	31	2	31	32	2	32	33	2	33	34	2	34	35	2	35	36	2	36	37	2	37	38	2	38	39	2	39	40	2	177	178	2	178	179	2	179	180	2	180	181	2	181	182	2	182	183	2	183	184	2	184	185	2	185	186	2	186	187	2	187	188	2	188	189	2	189	190	2	190	191	2	191	192	2	192	193	2	193	194	2	194	195	2	195	196	2	196	197	2	197	0	
CELL_TYPES 198
3	3	3	3	3	3	3	3	3	3	3	3	3	3	3	3	3	3	3	3	3	3	3	3	3	3	3	3	3	3	3	3	3	3	3	3	3	3	3	3	3	3	3	3	3	3	3	3	3	3	3	3	3	3	3	3	3	3	3	3	3	3	3	3	3	3	3	3	3	3	3	3	3	3	3	3	3	3	3	3	3	3	3	3	3	3	3	3	3	3	3	3	3	3	3	3	3	3	3	3	3	3	3	3	3	3	3	3	3	3	3	3	3	3	3	3	3	3	3	3	3	3	3	3	3	3	3	3	3	3	3	3	3	3	3	3	3	3	3	3	3	3	3	3	3	3	3	3	3	3	3	3	3	3	3	3	3	3	3	3	3	3	3	3	3	3	3	3	3	3	3	3	3	3	3	3	3	3	3	3	3	3	3	3	3	3	3	3	3	3	3	3	3	3	3	3	3	3	
POINT_DATA 198

SCALARS Density double 1
LOOKUP_TABLE default
1.551131e+00	1.259251e+00	1.263796e+00	1.171896e+00	1.134608e+00	1.105191e+00	1.102069e+00	1.100558e+00	1.119455e+00	1.134936e+00	1.156367e+00	1.167943e+00	1.169506e+00	1.150567e+00	1.106167e+00	1.012622e+00	9.012582e-01	7.937653e-01	6.913933e-01	6.122659e-01	5.919446e-01	7.386078e-01	1.079922e+00	1.219010e+00	1.237412e+00	1.251196e+00	1.271755e+00	1.269266e+00	1.273047e+00	1.272007e+00	1.245034e+00	1.234514e+00	1.211227e+00	1.174907e+00	1.142466e+00	1.108410e+00	1.050898e+00	1.004595e+00	9.728835e-01	9.191645e-01	8.858934e-01	8.256573e-01	7.711337e-01	7.440094e-01	6.942978e-01	6.671813e-01	6.240133e-01	5.815320e-01	5.675964e-01	5.427000e-01	5.245964e-01	5.059585e-01	5.525976e-01	7.815135e-01	1.072423e+00	1.121419e+00	1.145228e+00	1.158773e+00	1.170878e+00	1.183637e+00	1.187007e+00	1.194472e+00	1.197081e+00	1.190324e+00	1.191697e+00	1.183585e+00	1.171916e+00	1.163628e+00	1.150587e+00	1.135565e+00	1.129813e+00	1.116334e+00	1.114683e+00	1.124061e+00	1.127013e+00	1.141076e+00	1.149966e+00	1.160814e+00	1.171077e+00	1.177523e+00	1.183548e+00	1.188736e+00	1.192392e+00	1.196258e+00	1.199804e+00	1.202831e+00	1.206141e+00	1.209270e+00	1.211943e+00	1.215352e+00	1.218394e+00	1.221359e+00	1.224580e+00	1.227488e+00	1.230716e+00	1.234090e+00	1.237030e+00	1.243071e+00	1.235764e+00	1.243970e+00	1.354994e+00	1.331642e+00	1.339539e+00	1.341496e+00	1.344468e+00	1.347752e+00	1.349761e+00	1.353230e+00	1.355477e+00	1.358544e+00	1.361925e+00	1.364885e+00	1.371362e+00	1.371515e+00	1.380453e+00	1.382363e+00	1.380080e+00	1.386390e+00	1.374884e+00	1.374358e+00	1.364855e+00	1.333115e+00	1.308162e+00	1.269564e+00	1.209355e+00	1.164095e+00	1.068854e+00	1.016174e+00	1.026703e+00	1.036293e+00	1.095245e+00	1.139210e+00	1.180495e+00	1.228255e+00	1.257507e+00	1.277617e+00	1.304905e+00	1.316183e+00	1.323100e+00	1.333002e+00	1.330292e+00	1.338912e+00	1.336800e+00	1.331469e+00	1.331893e+00	1.319747e+00	1.314240e+00	1.302924e+00	1.285315e+00	1.272009e+00	1.253903e+00	1.237139e+00	1.223103e+00	1.199058e+00	9.040688e-01	6.748957e-01	6.208918e-01	6.450382e-01	6.868603e-01	7.139576e-01	7.738146e-01	8.038663e-01	8.920244e-01	9.892473e-01	1.031260e+00	1.099386e+00	1.149539e+00	1.189492e+00	1.236976e+00	1.270013e+00	1.282416e+00	1.298161e+00	1.303873e+00	1.290466e+00	1.280689e+00	1.271002e+00	1.243139e+00	1.231326e+00	1.235847e+00	1.221536e+00	1.245518e+00	1.275269e+00	1.298238e+00	1.338839e+00	1.365523e+00	1.392156e+00	1.423651e+00	1.442970e+00	1.458694e+00	1.472093e+00	1.476181e+00	1.481611e+00	1.490145e+00	1.503369e+00	1.530786e+00	1.575961e+00	1.592688e+00	1.700571e+00	
VECTORS Momentum double
3.234102e+01	1.829372e+02	0.0	1.648892e+02	1.850339e+02	0.0	2.040657e+02	1.847644e+02	0.0	2.401978e+02	1.662368e+02	0.0	2.632131e+02	1.521489e+02	0.0	2.778457e+02	1.332134e+02	0.0	2.871114e+02	1.213024e+02	0.0	2.922785e+02	1.076554e+02	0.0	2.952734e+02	1.002855e+02	0.0	2.957529e+02	9.275255e+01	0.0	2.956137e+02	9.026186e+01	0.0	2.952872e+02	8.998551e+01	0.0	2.958626e+02	9.331458e+01	0.0	2.992439e+02	9.736831e+01	0.0	3.061823e+02	1.011353e+02	0.0	3.107121e+02	9.091677e+01	0.0	3.090367e+02	7.061726e+01	0.0	3.027641e+02	4.617097e+01	0.0	2.881177e+02	2.113372e+01	0.0	2.692012e+02	5.071513e-02	0.0	2.532120e+02	-1.176681e+01	0.0	2.387431e+02	-1.648970e+01	0.0	2.206804e+02	-1.828134e+01	0.0	2.070990e+02	-1.290854e+01	0.0	1.975634e+02	-8.057739e+00	0.0	1.860958e+02	-2.413788e+00	0.0	1.804559e+02	9.667248e+00	0.0	1.784504e+02	1.596789e+01	0.0	1.761015e+02	2.624551e+01	0.0	1.847594e+02	4.054404e+01	0.0	1.940662e+02	4.519240e+01	0.0	2.030687e+02	5.385578e+01	0.0	2.147399e+02	6.212415e+01	0.0	2.278042e+02	6.480243e+01	0.0	2.392060e+02	6.660071e+01	0.0	2.524413e+02	7.008783e+01	0.0	2.643284e+02	6.412363e+01	0.0	2.709843e+02	5.623672e+01	0.0	2.787103e+02	5.264929e+01	0.0	2.811371e+02	4.151056e+01	0.0	2.847842e+02	3.588278e+01	0.0	2.835491e+02	2.401035e+01	0.0	2.783841e+02	1.125146e+01	0.0	2.777788e+02	4.974077e+00	0.0	2.696873e+02	-7.154780e+00	0.0	2.660630e+02	-1.352694e+01	0.0	2.573841e+02	-2.275102e+01	0.0	2.464193e+02	-3.203237e+01	0.0	2.435286e+02	-3.510819e+01	0.0	2.363035e+02	-4.042587e+01	0.0	2.318287e+02	-4.354880e+01	0.0	2.230434e+02	-4.464081e+01	0.0	2.258438e+02	-4.973717e+01	0.0	2.372932e+02	-5.658106e+01	0.0	2.202685e+02	-4.959813e+01	0.0	2.090289e+02	-4.732589e+01	0.0	1.974570e+02	-4.261781e+01	0.0	1.894358e+02	-3.897159e+01	0.0	1.817096e+02	-3.536259e+01	0.0	1.751036e+02	-2.905356e+01	0.0	1.692826e+02	-2.532254e+01	0.0	1.648795e+02	-1.853004e+01	0.0	1.654528e+02	-1.122476e+01	0.0	1.660010e+02	-8.413128e+00	0.0	1.679745e+02	-2.395882e+00	0.0	1.730374e+02	1.726405e+00	0.0	1.776530e+02	3.085473e+00	0.0	1.836491e+02	5.148728e+00	0.0	1.911118e+02	4.570785e+00	0.0	1.962297e+02	8.140718e-01	0.0	2.020920e+02	-1.410538e+00	0.0	2.056168e+02	-9.409639e+00	0.0	2.042542e+02	-1.782911e+01	0.0	2.018923e+02	-2.238777e+01	0.0	1.969735e+02	-2.852974e+01	0.0	1.915613e+02	-3.103316e+01	0.0	1.853377e+02	-3.318975e+01	0.0	1.790144e+02	-3.374835e+01	0.0	1.742076e+02	-3.267164e+01	0.0	1.698996e+02	-3.177777e+01	0.0	1.658942e+02	-3.048710e+01	0.0	1.625816e+02	-2.918511e+01	0.0	1.594764e+02	-2.840098e+01	0.0	1.564718e+02	-2.761440e+01	0.0	1.540286e+02	-2.701190e+01	0.0	1.515688e+02	-2.670938e+01	0.0	1.487263e+02	-2.632969e+01	0.0	1.459672e+02	-2.600368e+01	0.0	1.431923e+02	-2.594165e+01	0.0	1.405313e+02	-2.569431e+01	0.0	1.378585e+02	-2.555387e+01	0.0	1.349569e+02	-2.537917e+01	0.0	1.318649e+02	-2.502047e+01	0.0	1.287247e+02	-2.472843e+01	0.0	1.254144e+02	-2.431521e+01	0.0	1.218870e+02	-2.388801e+01	0.0	1.176243e+02	-2.325980e+01	0.0	1.128999e+02	-2.255072e+01	0.0	1.057353e+02	-2.268828e+01	0.0	1.379891e+02	2.928130e+00	0.0	2.298815e+02	-1.179045e+01	0.0	2.188894e+02	-6.828514e+00	0.0	2.186825e+02	-5.137381e+00	0.0	2.163133e+02	-3.410121e+00	0.0	2.146702e+02	-1.735036e+00	0.0	2.131392e+02	-2.733294e-01	0.0	2.113848e+02	1.260653e+00	0.0	2.097997e+02	2.500988e+00	0.0	2.078996e+02	4.122437e+00	0.0	2.060373e+02	5.439964e+00	0.0	2.038083e+02	6.893707e+00	0.0	2.015514e+02	8.635700e+00	0.0	1.987343e+02	1.035151e+01	0.0	1.960755e+02	1.431198e+01	0.0	1.929899e+02	1.621652e+01	0.0	1.889999e+02	2.258715e+01	0.0	1.881773e+02	2.972357e+01	0.0	1.870471e+02	3.450296e+01	0.0	1.861669e+02	4.529802e+01	0.0	1.897548e+02	5.218285e+01	0.0	1.918795e+02	6.358062e+01	0.0	2.003215e+02	7.825874e+01	0.0	2.168358e+02	8.470584e+01	0.0	2.295420e+02	9.025620e+01	0.0	2.451704e+02	9.328759e+01	0.0	2.650179e+02	8.475694e+01	0.0	2.767273e+02	7.762408e+01	0.0	2.945945e+02	5.714733e+01	0.0	3.028806e+02	3.188479e+01	0.0	2.986279e+02	1.847219e+01	0.0	2.989880e+02	-1.900142e+00	0.0	2.892394e+02	-1.111645e+01	0.0	2.804195e+02	-1.728945e+01	0.0	2.700720e+02	-2.262853e+01	0.0	2.581505e+02	-1.963565e+01	0.0	2.499907e+02	-1.640206e+01	0.0	2.415952e+02	-1.423153e+01	0.0	2.335122e+02	-6.505047e+00	0.0	2.301818e+02	1.015992e-01	0.0	2.267057e+02	4.464407e+00	0.0	2.240006e+02	1.190973e+01	0.0	2.231502e+02	1.528145e+01	0.0	2.207936e+02	2.256351e+01	0.0	2.216283e+02	2.924824e+01	0.0	2.235107e+02	3.363560e+01	0.0	2.251959e+02	4.109747e+01	0.0	2.294822e+02	4.505498e+01	0.0	2.325346e+02	5.057729e+01	0.0	2.377674e+02	5.621508e+01	0.0	2.443038e+02	5.854389e+01	0.0	2.501599e+02	6.178804e+01	0.0	2.581578e+02	6.412123e+01	0.0	2.659372e+02	6.372459e+01	0.0	2.728030e+02	6.320168e+01	0.0	2.771030e+02	6.517749e+01	0.0	2.703033e+02	5.596056e+01	0.0	2.675962e+02	5.085517e+01	0.0	2.775569e+02	4.320547e+01	0.0	2.892747e+02	3.465766e+01	0.0	2.938150e+02	2.668186e+01	0.0	3.083018e+02	1.219860e+01	0.0	3.107917e+02	4.621084e+00	0.0	3.263387e+02	-1.816352e+01	0.0	3.318981e+02	-3.798853e+01	0.0	3.297472e+02	-4.405953e+01	0.0	3.303138e+02	-5.818014e+01	0.0	3.241072e+02	-6.296912e+01	0.0	3.190935e+02	-6.575577e+01	0.0	3.140056e+02	-6.834779e+01	0.0	3.079999e+02	-6.415728e+01	0.0	3.043025e+02	-5.739628e+01	0.0	3.033275e+02	-5.405927e+01	0.0	3.024390e+02	-4.836285e+01	0.0	3.041809e+02	-4.205914e+01	0.0	3.078310e+02	-4.215536e+01	0.0	3.097995e+02	-4.320258e+01	0.0	3.118847e+02	-4.387999e+01	0.0	3.146078e+02	-5.252259e+01	0.0	3.130683e+02	-6.265427e+01	0.0	3.092738e+02	-6.783908e+01	0.0	3.068491e+02	-8.354003e+01	0.0	2.980108e+02	-9.267390e+01	0.0	2.888529e+02	-9.784178e+01	0.0	2.785123e+02	-1.051775e+02	0.0	2.669862e+02	-1.042593e+02	0.0	2.568581e+02	-1.041486e+02	0.0	2.459894e+02	-1.025873e+02	0.0	2.371279e+02	-9.557458e+01	0.0	2.307814e+02	-8.970658e+01	0.0	2.250823e+02	-8.477064e+01	0.0	2.213849e+02	-8.009193e+01	0.0	2.169115e+02	-8.053458e+01	0.0	2.079648e+02	-8.368751e+01	0.0	1.942996e+02	-8.885771e+01	0.0	1.670280e+02	-9.411606e+01	0.0	1.244894e+02	-8.726425e+01	0.0	7.742237e+01	-6.405136e+01	0.0	-7.970964e+00	5.447291e+00	0.0	
SCALARS Energy double 1
LOOKUP_TABLE default
3.395586e+05	2.800511e+05	2.826343e+05	2.645407e+05	2.576902e+05	2.519455e+05	2.515889e+05	2.512614e+05	2.551758e+05	2.582166e+05	2.625734e+05	2.649371e+05	2.653766e+05	2.618088e+05	2.533129e+05	2.343844e+05	2.113765e+05	1.890181e+05	1.671807e+05	1.496856e+05	1.438768e+05	1.712522e+05	2.406795e+05	2.694017e+05	2.728601e+05	2.752907e+05	2.794628e+05	2.788675e+05	2.796319e+05	2.798674e+05	2.745553e+05	2.728256e+05	2.685620e+05	2.616123e+05	2.554661e+05	2.492176e+05	2.379559e+05	2.287498e+05	2.227941e+05	2.118831e+05	2.054019e+05	1.930638e+05	1.816093e+05	1.761672e+05	1.655418e+05	1.598824e+05	1.506088e+05	1.412806e+05	1.383265e+05	1.328196e+05	1.289167e+05	1.243319e+05	1.336624e+05	1.803580e+05	2.393577e+05	2.490436e+05	2.534456e+05	2.559042e+05	2.580991e+05	2.604873e+05	2.609417e+05	2.623269e+05	2.628822e+05	2.614507e+05	2.618158e+05	2.602880e+05	2.579914e+05	2.564897e+05	2.540550e+05	2.511041e+05	2.501768e+05	2.475111e+05	2.471190e+05	2.490092e+05	2.494265e+05	2.521698e+05	2.537871e+05	2.558196e+05	2.577935e+05	2.589836e+05	2.600997e+05	2.610697e+05	2.617272e+05	2.624368e+05	2.631027e+05	2.636606e+05	2.642671e+05	2.648406e+05	2.653195e+05	2.659617e+05	2.665273e+05	2.670710e+05	2.676654e+05	2.681941e+05	2.687888e+05	2.694120e+05	2.699241e+05	2.710970e+05	2.693412e+05	2.719565e+05	2.994319e+05	2.939265e+05	2.955970e+05	2.959026e+05	2.964598e+05	2.970903e+05	2.974403e+05	2.981103e+05	2.985074e+05	2.990825e+05	2.997106e+05	3.002503e+05	3.015206e+05	3.014542e+05	3.032481e+05	3.035251e+05	3.030427e+05	3.043821e+05	3.019733e+05	3.020706e+05	3.002608e+05	2.940574e+05	2.896077e+05	2.821646e+05	2.703907e+05	2.619478e+05	2.428332e+05	2.330284e+05	2.355579e+05	2.370723e+05	2.491765e+05	2.575568e+05	2.655557e+05	2.749039e+05	2.803190e+05	2.840836e+05	2.893954e+05	2.913521e+05	2.926497e+05	2.945866e+05	2.938922e+05	2.956961e+05	2.951641e+05	2.941059e+05	2.943156e+05	2.918742e+05	2.909526e+05	2.887628e+05	2.853696e+05	2.829373e+05	2.794876e+05	2.764581e+05	2.739781e+05	2.693718e+05	2.088621e+05	1.624872e+05	1.517182e+05	1.573588e+05	1.666074e+05	1.722455e+05	1.853854e+05	1.914967e+05	2.105537e+05	2.306454e+05	2.389717e+05	2.530318e+05	2.628375e+05	2.707026e+05	2.801787e+05	2.865502e+05	2.887885e+05	2.919674e+05	2.930374e+05	2.902906e+05	2.885003e+05	2.866282e+05	2.809880e+05	2.788303e+05	2.797907e+05	2.766281e+05	2.817044e+05	2.874670e+05	2.917720e+05	2.997994e+05	3.047235e+05	3.097878e+05	3.158628e+05	3.193955e+05	3.223382e+05	3.248536e+05	3.254903e+05	3.264659e+05	3.279722e+05	3.303600e+05	3.353982e+05	3.438600e+05	3.462979e+05	3.687957e+05	
SCALARS Pressure double 1
LOOKUP_TABLE default
1.313735e+05	1.022645e+05	1.010612e+05	9.125364e+04	8.678315e+04	8.359675e+04	8.300559e+04	8.287414e+04	8.469695e+04	8.635656e+04	8.850612e+04	8.965694e+04	8.969203e+04	8.750983e+04	8.252583e+04	7.305345e+04	6.225057e+04	5.197357e+04	4.273018e+04	3.620176e+04	3.584097e+04	5.299329e+04	8.719077e+04	1.006965e+05	1.028250e+05	1.045796e+05	1.066493e+05	1.064890e+05	1.068725e+05	1.063212e+05	1.034442e+05	1.019797e+05	9.917324e+04	9.509621e+04	9.139309e+04	8.730194e+04	8.110270e+04	7.625099e+04	7.257888e+04	6.718048e+04	6.356040e+04	5.761046e+04	5.251122e+04	4.971827e+04	4.525096e+04	4.267763e+04	3.884519e+04	3.527575e+04	3.399898e+04	3.194721e+04	3.035378e+04	2.928001e+04	3.410938e+04	5.691392e+04	8.623598e+04	9.142553e+04	9.425206e+04	9.590578e+04	9.738612e+04	9.887144e+04	9.944028e+04	1.003214e+05	1.005583e+05	9.993835e+04	9.999003e+04	9.905514e+04	9.780879e+04	9.679447e+04	9.526965e+04	9.365969e+04	9.284066e+04	9.141410e+04	9.130508e+04	9.226212e+04	9.274095e+04	9.426734e+04	9.534915e+04	9.661027e+04	9.775214e+04	9.851913e+04	9.923225e+04	9.983738e+04	1.002898e+05	1.007539e+05	1.011647e+05	1.015258e+05	1.019241e+05	1.023006e+05	1.026331e+05	1.030261e+05	1.033840e+05	1.037404e+05	1.041240e+05	1.044782e+05	1.048634e+05	1.052647e+05	1.056453e+05	1.063062e+05	1.058438e+05	1.057199e+05	1.119521e+05	1.103676e+05	1.110948e+05	1.113833e+05	1.117282e+05	1.120948e+05	1.123549e+05	1.127379e+05	1.130230e+05	1.133791e+05	1.137774e+05	1.141366e+05	1.148326e+05	1.149455e+05	1.158651e+05	1.161681e+05	1.159573e+05	1.165339e+05	1.154492e+05	1.151922e+05	1.141168e+05	1.106838e+05	1.075578e+05	1.032821e+05	9.677648e+04	9.147811e+04	8.167681e+04	7.548769e+04	7.615499e+04	7.755200e+04	8.334595e+04	8.831373e+04	9.284925e+04	9.800133e+04	1.014672e+05	1.038082e+05	1.067812e+05	1.082486e+05	1.090508e+05	1.101204e+05	1.099919e+05	1.108053e+05	1.106960e+05	1.101357e+05	1.100547e+05	1.088084e+05	1.080580e+05	1.068123e+05	1.048593e+05	1.032518e+05	1.012045e+05	9.914443e+04	9.736277e+04	9.466912e+04	6.561830e+04	4.241496e+04	3.678810e+04	3.847845e+04	4.192730e+04	4.451604e+04	4.954909e+04	5.256164e+04	6.026993e+04	6.969566e+04	7.412478e+04	8.074817e+04	8.616902e+04	9.043400e+04	9.537415e+04	9.903282e+04	1.005601e+05	1.021617e+05	1.028258e+05	1.015021e+05	1.003243e+05	9.925520e+04	9.643600e+04	9.500737e+04	9.541954e+04	9.423708e+04	9.644190e+04	9.971177e+04	1.023803e+05	1.066797e+05	1.098571e+05	1.128786e+05	1.163658e+05	1.186985e+05	1.205295e+05	1.220822e+05	1.226867e+05	1.233596e+05	1.244442e+05	1.260712e+05	1.293570e+05	1.346108e+05	1.372513e+05	1.475073e+05	
SCALARS Temperature double 1
LOOKUP_TABLE default
2.950460e+02	2.829066e+02	2.785723e+02	2.712635e+02	2.664526e+02	2.635010e+02	2.623788e+02	2.623231e+02	2.635673e+02	2.650661e+02	2.666294e+02	2.674192e+02	2.671663e+02	2.649570e+02	2.598959e+02	2.513181e+02	2.406160e+02	2.280976e+02	2.152980e+02	2.059776e+02	2.109255e+02	2.499409e+02	2.812604e+02	2.877647e+02	2.894776e+02	2.911735e+02	2.921357e+02	2.922687e+02	2.924501e+02	2.911795e+02	2.894376e+02	2.877717e+02	2.852328e+02	2.819616e+02	2.786765e+02	2.743808e+02	2.688470e+02	2.644142e+02	2.598841e+02	2.546128e+02	2.499398e+02	2.430703e+02	2.372208e+02	2.327919e+02	2.270452e+02	2.228367e+02	2.168572e+02	2.113163e+02	2.086683e+02	2.050707e+02	2.015662e+02	2.015982e+02	2.150281e+02	2.536953e+02	2.801256e+02	2.840076e+02	2.867010e+02	2.883213e+02	2.897448e+02	2.909932e+02	2.918364e+02	2.925824e+02	2.926340e+02	2.924808e+02	2.922950e+02	2.915466e+02	2.907448e+02	2.897788e+02	2.884467e+02	2.873236e+02	2.862610e+02	2.852657e+02	2.853474e+02	2.859328e+02	2.866639e+02	2.877909e+02	2.888432e+02	2.899285e+02	2.907844e+02	2.914616e+02	2.920769e+02	2.925755e+02	2.930002e+02	2.934049e+02	2.937304e+02	2.940370e+02	2.943805e+02	2.947034e+02	2.950093e+02	2.953082e+02	2.955943e+02	2.958933e+02	2.962062e+02	2.965095e+02	2.968223e+02	2.971434e+02	2.975090e+02	2.979155e+02	2.983734e+02	2.960582e+02	2.878228e+02	2.887250e+02	2.889139e+02	2.892417e+02	2.894962e+02	2.897382e+02	2.899783e+02	2.902209e+02	2.904726e+02	2.907299e+02	2.910270e+02	2.913125e+02	2.917047e+02	2.919590e+02	2.923893e+02	2.927489e+02	2.927012e+02	2.928176e+02	2.925199e+02	2.919803e+02	2.912686e+02	2.892324e+02	2.864247e+02	2.834008e+02	2.787701e+02	2.737531e+02	2.662017e+02	2.587846e+02	2.583948e+02	2.606999e+02	2.650963e+02	2.700567e+02	2.739962e+02	2.779545e+02	2.810903e+02	2.830488e+02	2.850664e+02	2.865077e+02	2.871223e+02	2.877844e+02	2.880343e+02	2.882960e+02	2.884667e+02	2.881557e+02	2.878522e+02	2.872118e+02	2.864263e+02	2.855831e+02	2.842024e+02	2.827728e+02	2.811681e+02	2.791773e+02	2.773067e+02	2.750416e+02	2.528447e+02	2.189338e+02	2.064058e+02	2.078081e+02	2.126468e+02	2.172073e+02	2.230638e+02	2.277799e+02	2.353717e+02	2.454320e+02	2.503948e+02	2.558661e+02	2.611307e+02	2.648503e+02	2.685962e+02	2.716448e+02	2.731665e+02	2.741509e+02	2.747243e+02	2.740053e+02	2.728932e+02	2.720429e+02	2.702402e+02	2.687909e+02	2.689694e+02	2.687485e+02	2.697404e+02	2.723799e+02	2.747214e+02	2.775772e+02	2.802589e+02	2.824581e+02	2.847425e+02	2.865618e+02	2.878456e+02	2.888998e+02	2.895265e+02	2.900474e+02	2.909219e+02	2.921332e+02	2.943784e+02	2.975533e+02	3.002036e+02	3.021685e+02	
SCALARS Mach double 1
LOOKUP_TABLE default
3.478104e-01	5.837050e-01	6.510055e-01	7.549466e-01	8.188472e-01	8.567547e-01	8.709497e-01	8.716510e-01	8.559124e-01	8.367636e-01	8.165485e-01	8.062344e-01	8.095447e-01	8.381650e-01	9.019803e-01	1.005979e+00	1.131103e+00	1.274369e+00	1.420500e+00	1.528193e+00	1.470816e+00	1.022311e+00	6.098928e-01	5.005474e-01	4.684863e-01	4.348333e-01	4.147140e-01	4.118665e-01	4.079568e-01	4.347109e-01	4.692558e-01	5.004196e-01	5.451200e-01	5.988406e-01	6.494449e-01	7.118018e-01	7.874069e-01	8.451192e-01	9.021260e-01	9.665387e-01	1.022323e+00	1.102720e+00	1.170156e+00	1.220837e+00	1.286360e+00	1.334317e+00	1.402627e+00	1.466305e+00	1.496925e+00	1.538770e+00	1.579845e+00	1.579469e+00	1.423597e+00	9.775782e-01	6.274814e-01	5.656917e-01	5.196419e-01	4.903178e-01	4.633207e-01	4.385143e-01	4.210618e-01	4.050823e-01	4.039582e-01	4.072912e-01	4.113035e-01	4.271293e-01	4.435442e-01	4.626611e-01	4.879897e-01	5.085367e-01	5.273795e-01	5.445593e-01	5.431653e-01	5.330929e-01	5.202978e-01	5.000705e-01	4.805661e-01	4.597424e-01	4.427449e-01	4.288939e-01	4.159684e-01	4.052331e-01	3.958901e-01	3.868022e-01	3.793544e-01	3.722167e-01	3.640724e-01	3.562665e-01	3.487253e-01	3.412124e-01	3.338756e-01	3.260484e-01	3.176704e-01	3.093469e-01	3.005420e-01	2.912481e-01	2.803156e-01	2.676686e-01	2.527146e-01	3.216587e-01	4.994886e-01	4.827890e-01	4.792314e-01	4.730078e-01	4.681287e-01	4.634490e-01	4.587678e-01	4.539949e-01	4.489991e-01	4.438434e-01	4.378260e-01	4.319761e-01	4.238271e-01	4.184725e-01	4.092713e-01	4.014416e-01	4.024884e-01	3.999297e-01	4.064431e-01	4.180209e-01	4.328808e-01	4.731848e-01	5.245118e-01	5.756724e-01	6.480423e-01	7.206175e-01	8.221040e-01	9.157143e-01	9.205110e-01	8.919857e-01	8.363744e-01	7.712551e-01	7.172108e-01	6.601982e-01	6.125529e-01	5.814018e-01	5.479485e-01	5.230519e-01	5.121489e-01	5.001880e-01	4.956149e-01	4.907869e-01	4.876176e-01	4.933794e-01	4.989512e-01	5.105452e-01	5.244839e-01	5.391264e-01	5.624593e-01	5.858647e-01	6.113372e-01	6.419146e-01	6.697470e-01	7.024474e-01	9.877722e-01	1.378868e+00	1.523206e+00	1.506904e+00	1.450971e+00	1.398617e+00	1.331728e+00	1.277989e+00	1.191345e+00	1.075256e+00	1.016936e+00	9.513834e-01	8.866106e-01	8.395335e-01	7.907317e-01	7.497497e-01	7.287945e-01	7.150383e-01	7.069488e-01	7.170831e-01	7.325846e-01	7.443022e-01	7.687886e-01	7.881513e-01	7.857811e-01	7.887138e-01	7.754959e-01	7.396715e-01	7.069898e-01	6.657707e-01	6.254325e-01	5.909246e-01	5.534232e-01	5.221009e-01	4.990722e-01	4.794981e-01	4.675458e-01	4.574116e-01	4.399621e-01	4.147690e-01	3.641238e-01	2.789640e-01	1.816370e-01	1.629151e-02	
SCALARS Pressure_Coefficient double 1
LOOKUP_TABLE default