# vtk DataFile Version 3.0
vtk output
ASCII
DATASET UNSTRUCTURED_GRID
POINTS 20252 double
5.000000e+01	0.000000e+00	0.0	4.958950e+01	6.393858e+00	0.0	4.836474e+01	1.268273e+01	0.0	4.634584e+01	1.876335e+01	0.0	4.356594e+01	2.453588e+01	0.0	4.007068e+01	2.990553e+01	0.0	3.591747e+01	3.478413e+01	0.0	3.117449e+01	3.909157e+01	0.0	2.591963e+01	4.275714e+01	0.0	2.023917e+01	4.572063e+01	0.0	1.422638e+01	4.793339e+01	0.0	7.979995e+00	4.935909e+01	0.0	1.602579e+00	4.997431e+01	0.0	-4.801151e+00	4.976896e+01	0.0	-1.112605e+01	4.874640e+01	0.0	-1.726825e+01	4.692342e+01	0.0	-2.312691e+01	4.432997e+01	0.0	-2.860583e+01	4.100861e+01	0.0	-3.361504e+01	3.701390e+01	0.0	-3.807230e+01	3.241142e+01	0.0	-4.190441e+01	2.727675e+01	0.0	-4.504844e+01	2.169419e+01	0.0	-4.745279e+01	1.575541e+01	0.0	-4.907796e+01	9.557931e+00	0.0	-4.989727e+01	3.203511e+00	0.0	-4.989727e+01	-3.203511e+00	0.0	-4.907796e+01	-9.557931e+00	0.0	-4.745279e+01	-1.575541e+01	0.0	-4.504844e+01	-2.169419e+01	0.0	-4.190441e+01	-2.727675e+01	0.0	-3.807230e+01	-3.241142e+01	0.0	-3.361504e+01	-3.701390e+01	0.0	-2.860583e+01	-4.100861e+01	0.0	-2.312691e+01	-4.432997e+01	0.0	-1.726825e+01	-4.692342e+01	0.0	-1.112605e+01	-4.874640e+01	0.0	-4.801151e+00	-4.976896e+01	0.0	1.602579e+00	-4.997431e+01	0.0	7.979995e+00	-4.935909e+01	0.0	1.422638e+01	-4.793339e+01	0.0	2.023917e+01	-4.572063e+01	0.0	2.591963e+01	-4.275714e+01	0.0	3.117449e+01	-3.909157e+01	0.0	3.591747e+01	-3.478413e+01	0.0	4.007068e+01	-2.990553e+01	0.0	4.356594e+01	-2.453588e+01	0.0	4.634584e+01	-1.876335e+01	0.0	4.836474e+01	-1.268273e+01	0.0	4.958950e+01	-6.393858e+00	0.0	0.000000e+00	0.000000e+00	0.0	1.488382e-03	4.706598e-03	0.0	4.561434e-03	8.535421e-03	0.0	8.372391e-03	1.157825e-02	0.0	1.249391e-02	1.409553e-02	0.0	1.674474e-02	1.628303e-02	0.0	2.106017e-02	1.822913e-02	0.0	2.542977e-02	1.991367e-02	0.0	2.977477e-02	2.152574e-02	0.0	3.413705e-02	2.294377e-02	0.0	3.845894e-02	2.433304e-02	0.0	4.277967e-02	2.556822e-02	0.0	4.705696e-02	2.679098e-02	0.0	5.131743e-02	2.790617e-02	0.0	5.554324e-02	2.898311e-02	0.0	5.973186e-02	3.003265e-02	0.0	6.390049e-02	3.098720e-02	0.0	6.802919e-02	3.193260e-02	0.0	7.212326e-02	3.284823e-02	0.0	7.619306e-02	3.369016e-02	0.0	8.022500e-02	3.452424e-02	0.0	8.421980e-02	3.535065e-02	0.0	8.819250e-02	3.609681e-02	0.0	9.212947e-02	3.683539e-02	0.0	9.603123e-02	3.756736e-02	0.0	9.990289e-02	3.826789e-02	0.0	1.037476e-01	3.892331e-02	0.0	1.075588e-01	3.957303e-02	0.0	1.113373e-01	4.021717e-02	0.0	1.150875e-01	4.083199e-02	0.0	1.188113e-01	4.140953e-02	0.0	1.225040e-01	4.198224e-02	0.0	1.261662e-01	4.255022e-02	0.0	1.297989e-01	4.310976e-02	0.0	1.334090e-01	4.361876e-02	0.0	1.369902e-01	4.412366e-02	0.0	1.405428e-01	4.462456e-02	0.0	1.440675e-01	4.512152e-02	0.0	1.475667e-01	4.560013e-02	0.0	1.510431e-01	4.604450e-02	0.0	1.544929e-01	4.648548e-02	0.0	1.579166e-01	4.692312e-02	0.0	1.613147e-01	4.735749e-02	0.0	1.646883e-01	4.778294e-02	0.0	1.680414e-01	4.817001e-02	0.0	1.713703e-01	4.855427e-02	0.0	1.746752e-01	4.893577e-02	0.0	1.779566e-01	4.931456e-02	0.0	1.812149e-01	4.969068e-02	0.0	1.844526e-01	5.004547e-02	0.0	1.876699e-01	5.037989e-02	0.0	1.908653e-01	5.071202e-02	0.0	1.940391e-01	5.104192e-02	0.0	1.971916e-01	5.136961e-02	0.0	2.003234e-01	5.169513e-02	0.0	2.034360e-01	5.200472e-02	0.0	2.065303e-01	5.229280e-02	0.0	2.096049e-01	5.257903e-02	0.0	2.126599e-01	5.286345e-02	0.0	2.156958e-01	5.314608e-02	0.0	2.187129e-01	5.342696e-02	0.0	2.217115e-01	5.370612e-02	0.0	2.246940e-01	5.395829e-02	0.0	2.276592e-01	5.420384e-02	0.0	2.306067e-01	5.444792e-02	0.0	2.335369e-01	5.469057e-02	0.0	2.364501e-01	5.493182e-02	0.0	2.393465e-01	5.517167e-02	0.0	2.422265e-01	5.541017e-02	0.0	2.450919e-01	5.562616e-02	0.0	2.479420e-01	5.583384e-02	0.0	2.507765e-01	5.604039e-02	0.0	2.535956e-01	5.624582e-02	0.0	2.563995e-01	5.645014e-02	0.0	2.591886e-01	5.665338e-02	0.0	2.619630e-01	5.685556e-02	0.0	2.647234e-01	5.705268e-02	0.0	2.674711e-01	5.722667e-02	0.0	2.702049e-01	5.739978e-02	0.0	2.729251e-01	5.757202e-02	0.0	2.756318e-01	5.774342e-02	0.0	2.783253e-01	5.791397e-02	0.0	2.810059e-01	5.808371e-02	0.0	2.836737e-01	5.825264e-02	0.0	2.863290e-01	5.841979e-02	0.0	2.889733e-01	5.856299e-02	0.0	2.916055e-01	5.870554e-02	0.0	2.942258e-01	5.884744e-02	0.0	2.968344e-01	5.898871e-02	0.0	2.994315e-01	5.912935e-02	0.0	3.020173e-01	5.926938e-02	0.0	3.045920e-01	5.940881e-02	0.0	3.071558e-01	5.954765e-02	0.0	3.097093e-01	5.967634e-02	0.0	3.122530e-01	5.979087e-02	0.0	3.147863e-01	5.990494e-02	0.0	3.173094e-01	6.001855e-02	0.0	3.198226e-01	6.013172e-02	0.0	3.223259e-01	6.024444e-02	0.0	3.248197e-01	6.035672e-02	0.0	3.273039e-01	6.046858e-02	0.0	3.297789e-01	6.058003e-02	0.0	3.322451e-01	6.068479e-02	0.0	3.347029e-01	6.077307e-02	0.0	3.371519e-01	6.086103e-02	0.0	3.395924e-01	6.094869e-02	0.0	3.420243e-01	6.103604e-02	0.0	3.444480e-01	6.112309e-02	0.0	3.468636e-01	6.120986e-02	0.0	3.492711e-01	6.129633e-02	0.0	3.516709e-01	6.138252e-02	0.0	3.540629e-01	6.146844e-02	0.0	3.564479e-01	6.153975e-02	0.0	3.588257e-01	6.160369e-02	0.0	3.611964e-01	6.166744e-02	0.0	3.635599e-01	6.173099e-02	0.0	3.659165e-01	6.179436e-02	0.0	3.682662e-01	6.185755e-02	0.0	3.706094e-01	6.192055e-02	0.0	3.729460e-01	6.198338e-02	0.0	3.752763e-01	6.204605e-02	0.0	3.776003e-01	6.210854e-02	0.0	3.799185e-01	6.215823e-02	0.0	3.822309e-01	6.219966e-02	0.0	3.845375e-01	6.224099e-02	0.0	3.868383e-01	6.228221e-02	0.0	3.891337e-01	6.232333e-02	0.0	3.914235e-01	6.236436e-02	0.0	3.937081e-01	6.240529e-02	0.0	3.959875e-01	6.244613e-02	0.0	3.982618e-01	6.248687e-02	0.0	4.005312e-01	6.252753e-02	0.0	4.027958e-01	6.256506e-02	0.0	4.050559e-01	6.258534e-02	0.0	4.073116e-01	6.260558e-02	0.0	4.095627e-01	6.262579e-02	0.0	4.118096e-01	6.264595e-02	0.0	4.140522e-01	6.266608e-02	0.0	4.162908e-01	6.268617e-02	0.0	4.185254e-01	6.270622e-02	0.0	4.207562e-01	6.272624e-02	0.0	4.229832e-01	6.274623e-02	0.0	4.252067e-01	6.276618e-02	0.0	4.274266e-01	6.277884e-02	0.0	4.296433e-01	6.277838e-02	0.0	4.318567e-01	6.277793e-02	0.0	4.340669e-01	6.277747e-02	0.0	4.362741e-01	6.277702e-02	0.0	4.384783e-01	6.277657e-02	0.0	4.406798e-01	6.277612e-02	0.0	4.428785e-01	6.277567e-02	0.0	4.450746e-01	6.277521e-02	0.0	4.472683e-01	6.277476e-02	0.0	4.494595e-01	6.277431e-02	0.0	4.516485e-01	6.276745e-02	0.0	4.538352e-01	6.274564e-02	0.0	4.560199e-01	6.272386e-02	0.0	4.582027e-01	6.270210e-02	0.0	4.603836e-01	6.268036e-02	0.0	4.625627e-01	6.265864e-02	0.0	4.647403e-01	6.263693e-02	0.0	4.669163e-01	6.261524e-02	0.0	4.690909e-01	6.259356e-02	0.0	4.712642e-01	6.257189e-02	0.0	4.734363e-01	6.255023e-02	0.0	4.756073e-01	6.252711e-02	0.0	4.777770e-01	6.248281e-02	0.0	4.799458e-01	6.243852e-02	0.0	4.821138e-01	6.239425e-02	0.0	4.842811e-01	6.234999e-02	0.0	4.864479e-01	6.230574e-02	0.0	4.886142e-01	6.226151e-02	0.0	4.907801e-01	6.221728e-02	0.0	4.929458e-01	6.217305e-02	0.0	4.951113e-01	6.212883e-02	0.0	4.972768e-01	6.208461e-02	0.0	4.994423e-01	6.204039e-02	0.0	5.016075e-01	6.197822e-02	0.0	5.037728e-01	6.190982e-02	0.0	5.059385e-01	6.184141e-02	0.0	5.081046e-01	6.177299e-02	0.0	5.102713e-01	6.170454e-02	0.0	5.124387e-01	6.163608e-02	0.0	5.146069e-01	6.156759e-02	0.0	5.167759e-01	6.149907e-02	0.0	5.189459e-01	6.143052e-02	0.0	5.211171e-01	6.136194e-02	0.0	5.232894e-01	6.129332e-02	0.0	5.254626e-01	6.121378e-02	0.0	5.276367e-01	6.111962e-02	0.0	5.298123e-01	6.102540e-02	0.0	5.319896e-01	6.093110e-02	0.0	5.341685e-01	6.083673e-02	0.0	5.363493e-01	6.074228e-02	0.0	5.385321e-01	6.064775e-02	0.0	5.407169e-01	6.055313e-02	0.0	5.429038e-01	6.045841e-02	0.0	5.450930e-01	6.036360e-02	0.0	5.472846e-01	6.026868e-02	0.0	5.494784e-01	6.016800e-02	0.0	5.516738e-01	6.004641e-02	0.0	5.538719e-01	5.992466e-02	0.0	5.560728e-01	5.980276e-02	0.0	5.582766e-01	5.968070e-02	0.0	5.604834e-01	5.955847e-02	0.0	5.626934e-01	5.943607e-02	0.0	5.649067e-01	5.931348e-02	0.0	5.671233e-01	5.919071e-02	0.0	5.693434e-01	5.906774e-02	0.0	5.715671e-01	5.894458e-02	0.0	5.737943e-01	5.881612e-02	0.0	5.760239e-01	5.866609e-02	0.0	5.782575e-01	5.851580e-02	0.0	5.804952e-01	5.836523e-02	0.0	5.827371e-01	5.821438e-02	0.0	5.849833e-01	5.806324e-02	0.0	5.872339e-01	5.791180e-02	0.0	5.894890e-01	5.776006e-02	0.0	5.917489e-01	5.760800e-02	0.0	5.940135e-01	5.745562e-02	0.0	5.962831e-01	5.730291e-02	0.0	5.985569e-01	5.713881e-02	0.0	6.008348e-01	5.696053e-02	0.0	6.031181e-01	5.678184e-02	0.0	6.054067e-01	5.660272e-02	0.0	6.077010e-01	5.642317e-02	0.0	6.100009e-01	5.624317e-02	0.0	6.123066e-01	5.606272e-02	0.0	6.146183e-01	5.588180e-02	0.0	6.169361e-01	5.570040e-02	0.0	6.192601e-01	5.551852e-02	0.0	6.215903e-01	5.533515e-02	0.0	6.239252e-01	5.512922e-02	0.0	6.262668e-01	5.492271e-02	0.0	6.286151e-01	5.471560e-02	0.0	6.309704e-01	5.450788e-02	0.0	6.333326e-01	5.429953e-02	0.0	6.357021e-01	5.409055e-02	0.0	6.380790e-01	5.388093e-02	0.0	6.404633e-01	5.367064e-02	0.0	6.428553e-01	5.345967e-02	0.0	6.452550e-01	5.324701e-02	0.0	6.476608e-01	5.301318e-02	0.0	6.500747e-01	5.277856e-02	0.0	6.524968e-01	5.254313e-02	0.0	6.549274e-01	5.230689e-02	0.0	6.573665e-01	5.206981e-02	0.0	6.598144e-01	5.183188e-02	0.0	6.622712e-01	5.159308e-02	0.0	6.647370e-01	5.135341e-02	0.0	6.672122e-01	5.111283e-02	0.0	6.696957e-01	5.086093e-02	0.0	6.721877e-01	5.059776e-02	0.0	6.746895e-01	5.033356e-02	0.0	6.772012e-01	5.006831e-02	0.0	6.797231e-01	4.980200e-02	0.0	6.822552e-01	4.953459e-02	0.0	6.847979e-01	4.926608e-02	0.0	6.873512e-01	4.899644e-02	0.0	6.899154e-01	4.872565e-02	0.0	6.924897e-01	4.844476e-02	0.0	6.950740e-01	4.815150e-02	0.0	6.976698e-01	4.785693e-02	0.0	7.002772e-01	4.756105e-02	0.0	7.028964e-01	4.726382e-02	0.0	7.055278e-01	4.696522e-02	0.0	7.081714e-01	4.666523e-02	0.0	7.108274e-01	4.636382e-02	0.0	7.134962e-01	4.606097e-02	0.0	7.161759e-01	4.573889e-02	0.0	7.188684e-01	4.541314e-02	0.0	7.215742e-01	4.508577e-02	0.0	7.242937e-01	4.475675e-02	0.0	7.270270e-01	4.442606e-02	0.0	7.297744e-01	4.409367e-02	0.0	7.325360e-01	4.375955e-02	0.0	7.353123e-01	4.342367e-02	0.0	7.381012e-01	4.306908e-02	0.0	7.409048e-01	4.270984e-02	0.0	7.437237e-01	4.234865e
[...]
POINT_DATA 20252

SCALARS Density double 1
LOOKUP_TABLE default
1.291996e+00	1.291926e+00	1.292028e+00	1.291967e+00	1.291807e+00	1.291668e+00	1.291513e+00	1.291335e+00	1.291136e+00	1.290937e+00	1.290770e+00	1.290678e+00	1.290672e+00	1.290825e+00	1.291070e+00	1.291338e+00	1.291563e+00	1.291755e+00	1.291899e+00	1.292010e+00	1.292088e+00	1.292153e+00	1.292201e+00	1.292240e+00	1.292272e+00	1.292303e+00	1.292335e+00	1.292372e+00	1.292416e+00	1.292469e+00	1.292543e+00	1.292641e+00	1.292764e+00	1.292915e+00	1.293111e+00	1.293347e+00	1.293571e+00	1.293761e+00	1.293814e+00	1.293775e+00	1.293649e+00	1.293477e+00	1.293286e+00	1.293093e+00	1.292917e+00	1.292761e+00	1.292637e+00	1.292533e+00	1.292297e+00	1.577231e+00	1.238244e+00	1.051760e+00	9.251342e-01	8.743688e-01	8.545952e-01	8.357942e-01	8.300939e-01	8.302743e-01	8.329896e-01	8.335267e-01	8.324681e-01	8.366184e-01	8.351514e-01	8.435064e-01	8.404770e-01	8.397070e-01	8.481184e-01	8.443011e-01	8.437980e-01	8.538475e-01	8.496553e-01	8.437710e-01	8.520624e-01	8.556891e-01	8.498233e-01	8.485156e-01	8.562748e-01	8.576388e-01	8.511557e-01	8.498839e-01	8.561257e-01	8.604777e-01	8.532751e-01	8.477436e-01	8.536980e-01	8.593678e-01	8.594311e-01	8.522767e-01	8.486276e-01	8.543306e-01	8.593851e-01	8.606514e-01	8.536878e-01	8.477424e-01	8.514688e-01	8.562648e-01	8.595722e-01	8.568866e-01	8.499236e-01	8.474718e-01	8.508447e-01	8.549139e-01	8.573889e-01	8.556370e-01	8.482798e-01	8.451156e-01	8.475939e-01	8.507597e-01	8.536311e-01	8.555135e-01	8.503417e-01	8.431766e-01	8.430636e-01	8.458928e-01	8.486290e-01	8.511940e-01	8.527645e-01	8.479856e-01	8.412518e-01	8.408545e-01	8.430354e-01	8.451498e-01	8.471479e-01	8.494695e-01	8.492606e-01	8.421376e-01	8.367051e-01	8.379664e-01	8.403919e-01	8.422859e-01	8.442748e-01	8.465203e-01	8.472123e-01	8.400337e-01	8.339817e-01	8.351443e-01	8.373722e-01	8.385861e-01	8.401049e-01	8.423470e-01	8.439347e-01	8.415604e-01	8.350104e-01	8.310185e-01	8.322508e-01	8.342573e-01	8.356612e-01	8.369395e-01	8.385155e-01	8.397973e-01	8.381626e-01	8.315219e-01	8.270556e-01	8.283280e-01	8.301573e-01	8.312992e-01	8.323929e-01	8.334222e-01	8.347927e-01	8.360816e-01	8.311930e-01	8.241613e-01	8.224922e-01	8.241151e-01	8.259903e-01	8.272734e-01	8.283201e-01	8.295321e-01	8.309667e-01	8.318206e-01	8.278083e-01	8.208260e-01	8.184530e-01	8.197979e-01	8.210634e-01	8.221443e-01	8.232482e-01	8.242586e-01	8.253660e-01	8.265685e-01	8.261936e-01	8.188792e-01	8.134096e-01	8.137370e-01	8.158853e-01	8.168688e-01	8.175987e-01	8.183591e-01	8.191723e-01	8.203441e-01	8.214187e-01	8.186374e-01	8.112858e-01	8.074199e-01	8.087519e-01	8.100467e-01	8.105257e-01	8.113131e-01	8.123180e-01	8.132584e-01	8.143927e-01	8.152886e-01	8.130362e-01	8.057623e-01	8.010592e-01	8.021058e-01	8.030443e-01	8.039855e-01	8.050529e-01	8.059146e-01	8.066927e-01	8.076301e-01	8.086948e-01	8.086041e-01	8.010931e-01	7.934310e-01	7.936525e-01	7.952718e-01	7.964177e-01	7.972309e-01	7.981378e-01	7.990614e-01	8.000724e-01	8.011455e-01	8.018746e-01	7.958014e-01	7.876348e-01	7.856300e-01	7.867015e-01	7.878032e-01	7.887558e-01	7.895019e-01	7.902649e-01	7.910228e-01	7.919997e-01	7.926440e-01	7.894137e-01	7.805620e-01	7.759163e-01	7.772543e-01	7.783677e-01	7.790564e-01	7.796385e-01	7.804885e-01	7.813435e-01	7.824577e-01	7.836562e-01	7.819761e-01	7.733561e-01	7.657168e-01	7.663649e-01	7.680560e-01	7.693089e-01	7.700770e-01	7.708274e-01	7.716916e-01	7.726108e-01	7.736783e-01	7.725118e-01	7.638407e-01	7.571539e-01	7.575432e-01	7.587413e-01	7.597374e-01	7.608764e-01	7.616567e-01	7.623078e-01	7.632228e-01	7.641482e-01	7.608358e-01	7.528714e-01	7.487301e-01	7.493634e-01	7.509958e-01	7.520599e-01	7.525872e-01	7.536258e-01	7.544551e-01	7.547011e-01	7.582895e-01	8.487013e-01	1.087097e+00	1.178894e+00	1.179453e+00	1.172814e+00	1.174931e+00	1.174591e+00	1.173057e+00	1.170470e+00	1.167774e+00	1.163126e+00	1.163303e+00	1.166287e+00	1.165982e+00	1.165058e+00	1.164126e+00	1.162768e+00	1.161249e+00	1.159037e+00	1.156198e+00	1.154450e+00	1.156146e+00	1.158279e+00	1.158610e+00	1.158254e+00	1.157791e+00	1.156763e+00	1.155530e+00	1.153292e+00	1.152032e+00	1.154481e+00	1.156791e+00	1.157634e+00	1.157845e+00	1.157928e+00	1.157296e+00	1.156312e+00	1.154256e+00	1.155050e+00	1.159112e+00	1.160728e+00	1.161254e+00	1.161767e+00	1.161815e+00	1.161374e+00	1.159756e+00	1.160861e+00	1.164612e+00	1.166656e+00	1.167676e+00	1.168268e+00	1.168414e+00	1.168074e+00	1.167758e+00	1.170547e+00	1.173737e+00	1.175239e+00	1.175974e+00	1.176624e+00	1.176519e+00	1.176858e+00	1.179482e+00	1.182922e+00	1.184388e+00	1.185080e+00	1.186118e+00	1.185863e+00	1.187699e+00	1.191354e+00	1.193603e+00	1.194774e+00	1.195814e+00	1.196132e+00	1.197937e+00	1.201436e+00	1.203821e+00	1.205054e+00	1.206342e+00	1.207106e+00	1.209761e+00	1.213066e+00	1.214832e+00	1.216274e+00	1.217158e+00	1.219949e+00	1.223339e+00	1.225204e+00	1.226584e+00	1.228230e+00	1.231472e+00	1.234435e+00	1.236339e+00	1.237915e+00	1.240837e+00	1.244226e+00	1.246289e+00	1.248470e+00	1.251634e+00	1.255245e+00	1.257429e+00	1.260198e+00	1.264329e+00	1.267013e+00	1.269938e+00	1.274131e+00	1.277728e+00	1.281263e+00	1.285831e+00	1.289971e+00	1.294734e+00	1.299620e+00	1.305012e+00	1.311128e+00	1.317722e+00	1.325849e+00	1.334269e+00	1.346114e+00	1.365019e+00	1.351237e+00	1.451972e+00	1.422584e+00	1.423433e+00	1.423504e+00	1.425382e+00	1.425913e+00	1.426699e+00	1.426801e+00	1.427247e+00	1.427754e+00	1.426253e+00	1.427474e+00	1.425770e+00	1.425597e+00	1.426268e+00	1.423885e+00	1.423654e+00	1.424505e+00	1.422406e+00	1.420408e+00	1.422014e+00	1.421479e+00	1.418103e+00	1.417496e+00	1.418383e+00	1.417526e+00	1.414550e+00	1.413119e+00	1.414568e+00	1.413947e+00	1.410734e+00	1.409215e+00	1.408890e+00	1.409573e+00	1.407980e+00	1.405520e+00	1.404010e+00	1.403605e+00	1.404407e+00	1.402815e+00	1.400435e+00	1.398864e+00	1.397591e+00	1.398646e+00	1.398247e+00	1.395590e+00	1.393957e+00	1.392374e+00	1.391355e+00	1.392385e+00	1.391897e+00	1.389266e+00	1.387635e+00	1.386103e+00	1.384979e+00	1.384979e+00	1.385319e+00	1.383703e+00	1.381543e+00	1.380016e+00	1.378685e+00	1.377629e+00	1.377570e+00	1.377637e+00	1.376078e+00	1.373958e+00	1.372343e+00	1.371023e+00	1.369849e+00	1.368911e+00	1.369468e+00	1.368653e+00	1.366257e+00	1.364689e+00	1.363125e+00	1.361902e+00	1.360719e+00	1.359685e+00	1.359725e+00	1.358892e+00	1.356849e+00	1.355349e+00	1.353896e+00	1.352626e+00	1.351456e+00	1.350325e+00	1.349562e+00	1.348900e+00	1.347583e+00	1.345996e+00	1.344603e+00	1.343300e+00	1.342051e+00	1.340864e+00	1.339700e+00	1.338618e+00	1.337642e+00	1.336426e+00	1.335099e+00	1.333871e+00	1.332626e+00	1.331411e+00	1.330187e+00	1.328967e+00	1.327732e+00	1.326247e+00	1.324934e+00	1.323910e+00	1.322872e+00	1.321778e+00	1.320618e+00	1.319438e+00	1.318179e+00	1.316928e+00	1.315583e+00	1.313621e+00	1.311982e+00	1.311244e+00	1.310471e+00	1.309552e+00	1.308496e+00	1.307319e+00	1.306066e+00	1.304747e+00	1.303351e+00	1.301510e+00	1.298892e+00	1.297643e+00	1.297549e+00	1.296821e+00	1.296017e+00	1.294942e+00	1.293744e+00	1.292397e+00	1.290997e+00	1.289441e+00	1.286765e+00	1.283681e+00	1.282933e+00	1.283135e+00	1.282699e+00	1.281988e+00	1.280966e+00	1.279743e+00	1.278303e+00	1.276752e+00	1.275096e+00	1.272060e+00	1.267691e+00	1.266965e+00	1.267769e+00	1.267818e+00	1.267343e+00	1.266513e+00	1.265346e+00	1.263907e+00	1.262241e+00	1.260583e+00	1.257838e+00	1.251167e+00	1.248708e+00	1.251346e+00	1.252057e+00	1.252156e+00	1.251575e+00	1.250547e+00	1.249154e+00	1.247443e+00	1.245725e+00	1.243215e+00	1.236720e+00	1.231159e+00	1.232862e+00	1.235298e+00	1.236286e+00	1.236356e+00	1.235716e+00	1.234636e+00	1.233039e+00	1.231163e+00	1.229009e+00	1.223506e+00	1.214687e+00	1.213284e+00	1.218521e+00	1.220691e+00	1.221744e+00	1.221699e+00	1.221013e+00	1.219656e+00	1.218078e+00	1.216439e+00	1.211860e+00	1.200150e+00	1.196239e+00	1.203023e+00	1.206673e+00	1.208962e+00	1.209662e+00	1.209518e+00	1.208454e+00	1.207072e+00	1.205755e+00	1.201196e+00	1.189296e+00	1.184527e+00	1.191166e+00	1.196436e+00	1.199394e+00	1.200978e+00	1.201259e+00	1.200606e+00	1.199734e+00	1.199032e+00	1.193793e+00	1.178919e+00	1.176415e+00	1.186443e+00	1.191737e+00	1.195551e+00	1.197284e+00	1.197719e+00	1.197381e+00	1.196916e+00	1.194373e+00	1.185035e+00	1.177004e+00	1.181742e+00	1.189775e+00	1.194641e+00	1.197669e+00	1.199064e+00	1.199626e+00	1.199773e+00	1.198393e+00	1.190417e+00	1.182896e+00	1.186867e+00	1.195209e+00	1.200258e+00	1.203602e+00	1.205332e+00	1.206231e+00	1.207214e+00	1.205241e+00	1.195888e+00	1.193291e+00	1.201027e+00	1.207238e+00	1.211626e+00	1.214124e+00	1.215781e+00	1.217163e+00	1.216665e+00	1.210462e+00	1.208129e+00	1.213717e+00	1.219525e+00	1.223518e+00	1.226046e+00	1.227793e+00	1.229235e+00	1.228355e+00	1.222796e+00	1.223149e+00	1.230257e+00	1.234333e+00	1.237387e+00	1.239321e+00	1.241079e+00	1.241220e+00	1.236545e+00	1.236830e+00	1.242449e+00	1.246160e+00	1.249126e+00	1.251057e+00	1.252391e+00	1.251173e+00	1.248500e+00	1.250552e+00	1.255741e+00	1.258881e+00	1.261264e+00	1.262923e+00	1.262441e+00	1.259520e+00	1.261603e+00	1.266635e+00	1.269725e+00	1.272390e+00	1.273661e+00	1.271444e+00	1.270690e+00	1.274710e+00	1.278832e+00	1.281841e+00	1.283787e+00	1.282428e+00	1.281364e+00	1.285196e+00	1.289733e+00	1.293127e+00	1.295004e+00	1.292187e+00	1.293028e+00	1.298834e+00	1.302911e+00	1.305737e+00	1.304241e+00	1.304492e+00	1.309771e+00	1.314661e+00	1.317979e+00	1.315520e+00	1.317282e+00	1.324335e+00	1.328647e+00	1.328834e+00	1.329418e+00	1.335429e+00	1.341236e+00	1.341819e+00	1.343196e+00	1.350359e+00	1.356583e+00	1.355859e+00	1.360091e+00	1.370421e+00	1.371242e+00	1.375713e+00	1.386518e+00	1.388045e+00	1.394248e+00	1.405767e+00	1.409894e+00	1.421870e+00	1.429561e+00	1.441314e+00	1.453915e+00	1.467973e+00	1.486771e+00	1.503433e+00	1.528958e+00	1.561824e+00	1.595287e+00	1.630135e+00	1.680995e+00	1.360764e+00	1.360074e+00	1.359879e+00	1.292001e+00	1.291855e+00	1.291981e+00	1.291994e+00	1.291989e+00	1.292462e+00	1.292233e+00	1.290476e+00	1.290056e+00	1.290127e+00	1.291732e+00	1.292433e+00	1.292042e+00	1.292565e+00	1.291325e+00	1.291486e+00	1.291243e+00	1.291433e+00	1.291584e+00	1.291144e+00	1.293069e+00	1.292899e+00	1.292926e+00	1.291295e+00	1.290752e+00	1.293032e+00	1.290735e+00	1.290950e+00	1.293221e+00	1.293459e+00	1.293885e+00	1.294119e+00	1.293894e+00	1.289121e+00	1.289126e+00	1.289310e+00	1.293689e+00	1.293776e+00	1.289708e+00	1.289938e+00	1.289903e+00	1.291412e+00	1.291959e+00	1.291749e+00	1.300877e+00	1.302237e+00	1.298379e+00	1.274540e+00	1.276429e+00	1.271367e+00	1.398091e+00	1.401592e+00	1.396755e+00	1.335759e+00	1.341595e+00	1.339569e+00	1.385645e+00	1.376425e+00	1.352279e+00	1.354520e+00	1.344627e+00	1.290194e+00	1.290295e+00	1.290396e+00	1.328074e+00	1.325632e+00	1.325260e+00	1.285994e+00	1.281737e+00	1.282717e+00	1.314603e+00	1.318701e+00	1.320446e+00	1.329341e+00	1.320501e+00	1.324583e+00	1.325502e+00	1.322746e+00	1.319986e+00	1.305584e+00	1.300762e+00	1.303983e+00	1.300087e+00	1.284045e+00	1.284387e+00	1.291678e+00	1.286250e+00	1.287514e+00	1.281717e+00	1.290431e+00	1.292138e+00	1.288997e+00	1.181456e+00	1.180568e+00	1.179859e+00	1.311753e+00	1.315366e+00	1.311487e+00	1.270561e+00	1.263744e+00	1.264189e+00	1.271152e+00	1.267649e+00	1.270655e+00	1.238886e+00	1.235569e+00	1.233182e+00	1.257064e+00	1.252773e+00	1.255979e+00	1.248655e+00	1.249968e+00	1.265477e+00	1.262552e+00	1.263447e+00	1.283843e+00	1.281618e+00	1.280348e+00	1.244123e+00	1.250263e+00	1.253936e+00	1.249311e+00	1.258970e+00	1.261449e+00	1.260370e+00	1.238492e+00	1.235400e+00	1.240121e+00	1.228694e+00	1.229681e+00	1.234728e+00	1.237913e+00	1.234694e+00	1.239931e+00	1.239444e+00	1.244198e+00	1.224196e+00	1.219755e+00	1.229099e+00	1.225584e+00	1.230931e+00	1.243108e+00	1.241991e+00	1.244081e+00	1.219968e+00	1.215367e+00	1.222568e+00	1.212617e+00	1.218262e+00	1.217473e+00	1.222901e+00	1.215712e+00	1.214531e+00	1.216448e+00	1.230347e+00	1.231647e+00	1.233265e+00	1.209340e+00	1.201372e+00	1.203257e+00	1.190728e+00	1.189233e+00	1.188747e+00	1.200706e+00	1.197760e+00	1.197015e+00	1.207171e+00	1.202703e+00	1.208653e+00	1.201518e+00	1.204946e+00	1.205121e+00	1.208867e+00	1.207470e+00	1.208250e+00	1.201914e+00	1.195794e+00	1.195104e+00	1.190494e+00	1.190846e+00	1.187983e+00	1.190576e+00	1.193061e+00	1.186467e+00	1.191975e+00	1.191992e+00	1.188942e+00	1.184001e+00	1.183832e+00	1.192390e+00	1.194116e+00	1.197015e+00	1.180021e+00	1.182472e+00	1.183765e+00	1.185671e+00	1.183844e+00	1.181300e+00	1.197892e+00	1.198292e+00	1.199666e+00	1.197698e+00	1.198669e+00	1.199963e+00	1.178221e+00	1.176041e+00	1.183458e+00	1.185261e+00	1.188750e+00	1.172655e+00	1.172582e+00	1.178749e+00	1.177135e+00	1.173016e+00	1.173779e+00	1.171536e+00	1.170167e+00	1.175039e+00	1.173778e+00	1.167572e+00	1.170229e+00	1.171358e+00	1.166821e+00	1.174735e+00	1.166463e+00	1.187722e+00	1.186354e+00	1.185496e+00	1.165561e+00	1.178115e+00	1.174026e+00	1.174824e+00	1.176415e+00	1.166891e+00	1.170385e+00	1.165410e+00	1.164146e+00	1.167529e+00	1.161545e+00	1.162693e+00	1.162305e+00	1.164055e+00	1.190864e+00	1.192022e+00	1.190655e+00	1.167369e+00	1.161517e+00	1.167308e+00	1.163085e+00	1.169609e+00	1.164420e+00	1.166825e+00	7.572935e-01	7.572567e-01	1.158425e+00	1.167254e+00	1.172007e+00	1.167043e+00	1.165006e+00	1.160770e+00	1.176913e+00	1.178929e+00	1.178919e+00	1.164574e+00	1.163322e+00	1.160951e+00	1.194374e+00	1.193635e+00	1.192419e+00	1.163711e+00	1.167518e+00	1.164513e+00	1.161780e+00	1.168910e+00	1.183327e+00	1.183213e+00	1.182836e+00	1.170646e+00	1.169898e+00	1.165002e+00	1.187115e+00	1.186605e+00	1.186056e+00	1.167936e+00	1.167145e+00	1.172607e+00	1.172250e+00	1.168049e+00	1.169429e+00	1.172309e+00	1.170589e+00	1.189650e+00	1.187471e+00	1.186827e+00	1.176562e+00	1.176763e+00	1.170902e+00	1.169377e+00	1.204434e+00	1.203294e+00	1.202085e+00	1.179021e+00	1.182836e+00	1.183793e+00	1.182379e+00	1.189518e+00	1.188402e+00	1.181532e+00	7.611268e-01	7.466945e-01	7.513644e-01	1.177440e+00	1.188819e+00	1.178732e+00	1.178395e+00	7.557013e-01	1.290606e+00	1.290784e+00	7.810656e-01	7.817154e-01	7.746094e-01	7.635408e-01	7.650419e-01	7.679655e-01	7.547113e-01	7.567354e-01	7.554950e-01	7.544763e-01	7.533943e-01	7.529698e-01	7.544884e-01	7.569787e-01	7.598201e-01	7.842945e-01	7.840222e-01	7.823163e-01	7.668414e-01	7.668075e-01	7.948892e-01	7.925544e-01	7.847095e-01	7.667342e-01	7.654256e-01	7.690273e-01	7.654286e-01	7.870577e-01	7.816397e-01	7.804580e-01	7.640814e-01	7.631572e-01	7.609455e-01	7.723966e-01	7.661754e-01	7.658376e-01	7.762409e-01	7.774113e-01	7.934669e-01	7.908226e-01	7.873995e-01	7.691019e-01	7.783789e-01	7.807563e-01	7.783524e-01	8.631835e-01	8.626126e-01	8.700341e-01	7.757919e-01	7.745899e-01	1.283186e+00	1.283971e+00	1.282655e+00	8.033378e-01	8.016317e-01	8.007583e-01	7.812463e-01	7.788841e-01	7.797998e-01	7.730512e-01	7.736148e-01	7.749780e-01	7.724467e-01	7.714768e-01	7.862207e-01	7.798827e-01	7.803688e-01	8.034278e-01	8.057956e-01	8.006095e-01	7.704516e-01	7.683867e-01	7.752879e-01	7.702858e-01	7.767211e-01	7.855644e-01	7.861589e-01	7.881570e-01	7.863419e-01	7.875422e-01	7.849237e-01	7.954604e-01	7.952969e-01	7.933435e-01	7.829619e-01	8.145164e-01	8.132837e-01	8.149378e-01	7.811634e-01	7.813296e-01	7.789599e-01	7.859896e-01	7.865645e-01	8.045341e-01	8.060214e-01	8.060505e-01	7.905741e-01	7.961398e-01	8.053479e-01	8.093143e-01	7.886388e-01	7.914933e-01	7.930245e-01	7.944021e-01	7.961696e-01	7.934952e-01	7.933910e-01	7.904935e-01	7.921248e-01	7.947478e-01	7.953426e-01	7.891638e-01	7.921153e-01	7.921361e-01	7.960099e-01	7.947543e-01	8.215331e-01	8.203147e-01	8.218420e-01	8.051144e-01	8.046619e-01	8.035492e-01	8.018011e-01	7.994706e-01	8.017293e-01	7.985022e-01	7.991161e-01	8.297632e-01	8.288719e-01	8.310694e-01	7.971470e-01	7.987315e-01	8.041676e-01	8.022193e-01	7.996845e-01	8.118404e-01	8.129459e-01	8.104494e-01	8.206297e-01	8.124328e-01	8.163325e-01	8.696336e-01	8.739379e-01	8.739484e-01	8.235725e-01	8.234283e-01	8.221182e-01	8.042987e-01	8.026494e-01	8.088789e-01	8.245302e-01	8.242707e-01	8.215760e-01	8.185424e-01	8.183194e-01	8.213673e-01	8.222078e-01	8.269276e-01	8.255745e-01	8.290048e-01	8.164865e-01	8.238718e-01	8.259276e-01	8.256856e-01	8.190062e-01	8.183462e-01	8.214907e-01	8.415233e-01	8.402416e-01	8.421457e-01	8.363314e-01	8.360001e-01	8.397090e-01	8.159108e-01	8.114599e-01	8.143558e-01	8.118494e-01	8.195327e-01	8.604797e-01	8.575572e-01	8.239298e-01	8.245849e-01	8.218201e-01	8.212564e-01	8.245683e-01	8.437355e-01	8.446077e-01	8.478695e-01	8.211435e-01	8.194355e-01	8.219639e-01	8.200455e-01	8.177397e-01	8.223749e-01	8.272708e-01	8.274551e-01	8.184964e-01	8.353985e-01	8.358368e-01	8.326150e-01	8.893893e-01	8.927506e-01	8.880427e-01	8.472349e-01	8.448635e-01	8.452750e-01	8.290538e-01	8.283453e-01	8.315554e-01	8.304422e-01	8.487543e-01	8.489927e-01	8.508097e-01	8.267913e-01	8.239630e-01	8.224126e-01	8.221963e-01	8.247591e-01	8.537896e-01	8.512376e-01	8.512885e-01	8.344050e-01	8.366833e-01	8.276816e-01	8.267359e-01	8.354140e-01	8.370504e-01	8.344667e-01	8.406208e-01	8.426902e-01	8.440163e-01	8.490004e-01	8.481305e-01	8.291634e-01	8.304417e-01	8.347229e-01	8.416320e-01	8.357328e-01	8.292255e-01	8.314048e-01	8.396891e-01	8.296973e-01	8.358221e-01	8.506810e-01	8.525461e-01	8.521716e-01	8.354323e-01	8.380933e-01	8.376241e-01	8.375823e-01	8.396149e-01	8.379948e-01	1.290948e+00	1.290532e+00	8.371683e-01	8.502630e-01	8.476565e-01	8.490321e-01	8.337403e-01	8.325060e-01	8.372266e-01	8.544329e-01	8.534727e-01	8.513068e-01	8.345880e-01	8.317169e-01	8.586301e-01	8.591973e-01	8.595027e-01	8.519400e-01	8.482799e-01	8.486641e-01	8.405325e-01	8.742683e-01	8.718012e-01	8.732760e-01	8.437569e-01	8.477370e-01	8.466125e-01	8.385633e-01	8.452364e-01	8.417618e-01	8.492972e-01	8.462904e-01	8.496985e-01	8.502556e-01	8.422335e-01	8.426136e-01	8.460792e-01	8.402748e-01	8.454870e-01	8.414440e-01	8.402331e-01	8.563448e-01	8.526410e-01	8.651002e-01	8.676655e-01	8.683413e-01	8.530243e-01	8.479904e-01	8.535374e-01	8.490550e-01	8.505364e-01	8.453375e-01	8.475857e-01	8.431887e-01	8.499601e-01	8.703651e-01	8.730589e-01	8.732449e-01	8.472926e-01	8.511076e-01	8.718853e-01	8.744107e-01	8.744471e-01	8.835728e-01	8.816097e-01	8.808858e-01	8.472914e-01	8.491676e-01	8.530957e-01	8.489632e-01	8.518752e-01	8.553697e-01	8.453518e-01	8.518887e-01	1.011725e+00	1.003183e+00	9.993113e-01	8.569678e-01	8.560021e-01	8.529751e-01	8.508455e-01	8.747169e-01	8.702087e-01	8.677055e-01	8.787920e-01	8.766999e-01	8.736465e-01	8.484492e-01	8.603947e-01	8.625099e-01	8.672771e-01	8.721179e-01	8.684348e-01	8.590518e-01	8.662421e-01	8.615523e-01	8.642688e-01	8.933357e-01	8.907091e-01	8.904053e-01	8.580668e-01	8.656257e-01	8.597572e-01	8.645048e-01	8.697377e-01	8.615254e-01	9.412193e-01	9.387845e-01	9.469783e-01	8.606024e-01	8.649245e-01	8.564367e-01	8.580541e-01	8.905497e-01	8.909093e-01	8.888474e-01	8.634288e-01	8.668455e-01	8.635805e-01	8.573873e-01	8.560480e-01	8.668076e-01	8.626452e-01	8.739766e-01	8.852962e-01	8.848981e-01	8.801370e-01	8.854539e-01	8.877585e-01	8.912551e-01	9.279710e-01	9.308909e-01	9.343662e-01	8.669280e-01	8.746479e-01	8.732256e-01	8.711101e-01	8.646999e-01	8.591177e-01	8.665298e-01	8.942777e-01	8.938907e-01	8.898209e-01	8.667787e-01	8.627849e-01	8.755714e-01	8.663700e-01	8.772414e-01	8.750902e-01	8.694112e-01	9.515480e-01	9.262395e-01	9.443278e-01	1.260353e+00	1.239141e+00	1.239431e+00	1.057799e+00	1.037712e+00	1.050724e+00	8.622922e-01	8.689155e-01	8.600791e-01	8.642375e-01	8.664109e-01	8.746461e-01	8.648040e-01	8.628312e-01	8.888118e-01	8.966475e-01	8.930222e-01	8.791937e-01	8.857844e-01	8.885159e-01	8.929016e-01	8.900778e-01	8.952985e-01	9.311332e-01	9.193769e-01	9.202509e-01	1.291384e+00	8.884594e-01	8.938083e-01	8.843810e-01	8.604005e-01	8.689284e-01	8.592719e-01	8.744487e-01	1.291796e+00	1.291717e+00	1.291496e+00	8.560710e-01	8.657686e-01	1.289477e+00	1.288923e+00	1.289237e+00	8.554614e-01	8.638150e-01	8.488116e-01	1.291685e+00	9.099889e-01	8.979162e-01	8.816279e-01	1.292050e+00	1.292038e+00	1.292491e+00	1.292368e+00	1.292208e+00	1.292009e+00	1.292078e+00	1.291932e+00	1.292122e+00	1.292264e+00	1.292235e+00	1.29228