# vtk DataFile Version 3.0
vtk output
ASCII
DATASET UNSTRUCTURED_GRID
POINTS 1848 double
1.000000e+02	0.000000e+00	0.0	9.917900e+01	1.278772e+01	0.0	9.672949e+01	2.536546e+01	0.0	9.269168e+01	3.752670e+01	0.0	8.713187e+01	4.907176e+01	0.0	8.014136e+01	5.981105e+01	0.0	7.183494e+01	6.956826e+01	0.0	6.234898e+01	7.818315e+01	0.0	5.183926e+01	8.551428e+01	0.0	4.047833e+01	9.144126e+01	0.0	2.845276e+01	9.586679e+01	0.0	1.595999e+01	9.871818e+01	0.0	3.205158e+00	9.994862e+01	0.0	-9.602303e+00	9.953791e+01	0.0	-2.225209e+01	9.749279e+01	0.0	-3.453651e+01	9.384684e+01	0.0	-4.625383e+01	8.865993e+01	0.0	-5.721167e+01	8.201723e+01	0.0	-6.723009e+01	7.402780e+01	0.0	-7.614460e+01	6.482284e+01	0.0	-8.380881e+01	5.455349e+01	0.0	-9.009689e+01	4.338837e+01	0.0	-9.490557e+01	3.151082e+01	0.0	-9.815592e+01	1.911586e+01	0.0	-9.979454e+01	6.407022e+00	0.0	-9.979454e+01	-6.407022e+00	0.0	-9.815592e+01	-1.911586e+01	0.0	-9.490557e+01	-3.151082e+01	0.0	-9.009689e+01	-4.338837e+01	0.0	-8.380881e+01	-5.455349e+01	0.0	-7.614460e+01	-6.482284e+01	0.0	-6.723009e+01	-7.402780e+01	0.0	-5.721167e+01	-8.201723e+01	0.0	-4.625383e+01	-8.865993e+01	0.0	-3.453651e+01	-9.384684e+01	0.0	-2.225209e+01	-9.749279e+01	0.0	-9.602303e+00	-9.953791e+01	0.0	3.205158e+00	-9.994862e+01	0.0	1.595999e+01	-9.871818e+01	0.0	2.845276e+01	-9.586679e+01	0.0	4.047833e+01	-9.144126e+01	0.0	5.183926e+01	-8.551428e+01	0.0	6.234898e+01	-7.818315e+01	0.0	7.183494e+01	-6.956826e+01	0.0	8.014136e+01	-5.981105e+01	0.0	8.713187e+01	-4.907176e+01	0.0	9.269168e+01	-3.752670e+01	0.0	9.672949e+01	-2.536546e+01	0.0	9.917900e+01	-1.278772e+01	0.0	0.000000e+00	0.000000e+00	0.0	3.140697e-03	3.890505e-03	0.0	6.433162e-03	7.890484e-03	0.0	1.086798e-02	1.093704e-02	0.0	1.550174e-02	1.403265e-02	0.0	2.073784e-02	1.648223e-02	0.0	2.617890e-02	1.897963e-02	0.0	3.196821e-02	2.119981e-02	0.0	3.796655e-02	2.348001e-02	0.0	4.420786e-02	2.574205e-02	0.0	5.065263e-02	2.810443e-02	0.0	5.728985e-02	3.060880e-02	0.0	6.409421e-02	3.332398e-02	0.0	7.105539e-02	3.628555e-02	0.0	7.816451e-02	3.950647e-02	0.0	8.546027e-02	4.290745e-02	0.0	9.312561e-02	4.607876e-02	0.0	1.010712e-01	4.920679e-02	0.0	1.095383e-01	5.158972e-02	0.0	1.182943e-01	5.382024e-02	0.0	1.275123e-01	5.506975e-02	0.0	1.369834e-01	5.634029e-02	0.0	1.467904e-01	5.662136e-02	0.0	1.568513e-01	5.690970e-02	0.0	1.671619e-01	5.672513e-02	0.0	1.777218e-01	5.627225e-02	0.0	1.885247e-01	5.571832e-02	0.0	1.995413e-01	5.468001e-02	0.0	2.107999e-01	5.361891e-02	0.0	2.222794e-01	5.237557e-02	0.0	2.339813e-01	5.101060e-02	0.0	2.459127e-01	4.964443e-02	0.0	2.580935e-01	4.852727e-02	0.0	2.704885e-01	4.739046e-02	0.0	2.831180e-01	4.671998e-02	0.0	2.959684e-01	4.642432e-02	0.0	3.090071e-01	4.619220e-02	0.0	3.221956e-01	4.716244e-02	0.0	3.355537e-01	4.814516e-02	0.0	3.490203e-01	4.961281e-02	0.0	3.625927e-01	5.148174e-02	0.0	3.762974e-01	5.337942e-02	0.0	3.900911e-01	5.551445e-02	0.0	4.039928e-01	5.766620e-02	0.0	4.180162e-01	5.964004e-02	0.0	4.321437e-01	6.146079e-02	0.0	4.463409e-01	6.326077e-02	0.0	4.606504e-01	6.451223e-02	0.0	4.749974e-01	6.576698e-02	0.0	4.893859e-01	6.675829e-02	0.0	5.037959e-01	6.755375e-02	0.0	5.181999e-01	6.831460e-02	0.0	5.325940e-01	6.878291e-02	0.0	5.469505e-01	6.925001e-02	0.0	5.612580e-01	6.957067e-02	0.0	5.755003e-01	6.980679e-02	0.0	5.896615e-01	7.000304e-02	0.0	6.037286e-01	6.999607e-02	0.0	6.176866e-01	6.998914e-02	0.0	6.315202e-01	6.979597e-02	0.0	6.452178e-01	6.951597e-02	0.0	6.587662e-01	6.918063e-02	0.0	6.721472e-01	6.858739e-02	0.0	6.853584e-01	6.800168e-02	0.0	6.983704e-01	6.711580e-02	0.0	7.111835e-01	6.609461e-02	0.0	7.237859e-01	6.497484e-02	0.0	7.361224e-01	6.331972e-02	0.0	7.482456e-01	6.169320e-02	0.0	7.600360e-01	5.944969e-02	0.0	7.715544e-01	5.697458e-02	0.0	7.827705e-01	5.426682e-02	0.0	7.935790e-01	5.094167e-02	0.0	8.041553e-01	4.768797e-02	0.0	8.143413e-01	4.404349e-02	0.0	8.242837e-01	4.045666e-02	0.0	8.340039e-01	3.699513e-02	0.0	8.434945e-01	3.364340e-02	0.0	8.527901e-01	3.051542e-02	0.0	8.619742e-01	2.787312e-02	0.0	8.709138e-01	2.530113e-02	0.0	8.797164e-01	2.321534e-02	0.0	8.882960e-01	2.127593e-02	0.0	8.966507e-01	1.948771e-02	0.0	9.048022e-01	1.794565e-02	0.0	9.127114e-01	1.644942e-02	0.0	9.203937e-01	1.506729e-02	0.0	9.278420e-01	1.374340e-02	0.0	9.350546e-01	1.245059e-02	0.0	9.420339e-01	1.117989e-02	0.0	9.487870e-01	9.950051e-03	0.0	9.553125e-01	8.729521e-03	0.0	9.616203e-01	7.549682e-03	0.0	9.677107e-01	6.386805e-03	0.0	9.735919e-01	5.259594e-03	0.0	9.792652e-01	4.150072e-03	0.0	9.847380e-01	3.071240e-03	0.0	9.900139e-01	2.015851e-03	0.0	9.950975e-01	9.819402e-04	0.0	1.000000e+00	0.000000e+00	0.0	9.950054e-01	2.298442e-04	0.0	9.898211e-01	4.247047e-04	0.0	9.844422e-01	5.698851e-04	0.0	9.788643e-01	6.719423e-04	0.0	9.730831e-01	7.504018e-04	0.0	9.670937e-01	7.726167e-04	0.0	9.608917e-01	7.721728e-04	0.0	9.544729e-01	7.068362e-04	0.0	9.478326e-01	6.252196e-04	0.0	9.409680e-01	4.476110e-04	0.0	9.338734e-01	2.640498e-04	0.0	9.265483e-01	-2.902869e-05	0.0	9.189865e-01	-3.549633e-04	0.0	9.111873e-01	-7.578326e-04	0.0	9.031503e-01	-1.284141e-03	0.0	8.948667e-01	-1.826593e-03	0.0	8.863530e-01	-2.618619e-03	0.0	8.775914e-01	-3.463574e-03	0.0	8.685961e-01	-4.489379e-03	0.0	8.593730e-01	-5.755751e-03	0.0	8.499017e-01	-7.082680e-03	0.0	8.402512e-01	-8.896684e-03	0.0	8.303504e-01	-1.075773e-02	0.0	8.202840e-01	-1.305652e-02	0.0	8.099968e-01	-1.552766e-02	0.0	7.995280e-01	-1.829010e-02	0.0	7.888834e-01	-2.135453e-02	0.0	7.780205e-01	-2.453780e-02	0.0	7.670240e-01	-2.810291e-02	0.0	7.558044e-01	-3.174037e-02	0.0	7.443584e-01	-3.542217e-02	0.0	7.326958e-01	-3.915798e-02	0.0	7.208160e-01	-4.291984e-02	0.0	7.085814e-01	-4.621363e-02	0.0	6.961540e-01	-4.955934e-02	0.0	6.834215e-01	-5.241064e-02	0.0	6.703815e-01	-5.471089e-02	0.0	6.571735e-01	-5.704076e-02	0.0	6.436499e-01	-5.812673e-02	0.0	6.299682e-01	-5.913712e-02	0.0	6.161352e-01	-5.977808e-02	0.0	6.021587e-01	-5.993019e-02	0.0	5.880727e-01	-6.008349e-02	0.0	5.738909e-01	-5.994365e-02	0.0	5.596272e-01	-5.978841e-02	0.0	5.452958e-01	-5.970903e-02	0.0	5.309112e-01	-5.971251e-02	0.0	5.164888e-01	-5.971768e-02	0.0	5.020442e-01	-5.984408e-02	0.0	4.875920e-01	-5.997055e-02	0.0	4.731472e-01	-6.005029e-02	0.0	4.587248e-01	-6.009193e-02	0.0	4.443405e-01	-6.010772e-02	0.0	4.300107e-01	-5.986146e-02	0.0	4.157483e-01	-5.961635e-02	0.0	4.015744e-01	-5.915005e-02	0.0	3.875001e-01	-5.855384e-02	0.0	3.735377e-01	-5.791846e-02	0.0	3.597104e-01	-5.704957e-02	0.0	3.460184e-01	-5.618919e-02	0.0	3.324837e-01	-5.519918e-02	0.0	3.191126e-01	-5.415399e-02	0.0	3.059124e-01	-5.311111e-02	0.0	2.928963e-01	-5.203356e-02	0.0	2.800703e-01	-5.097175e-02	0.0	2.674281e-01	-5.014297e-02	0.0	2.549865e-01	-4.942849e-02	0.0	2.427569e-01	-4.886062e-02	0.0	2.307335e-01	-4.892903e-02	0.0	2.189391e-01	-4.899614e-02	0.0	2.074225e-01	-4.983251e-02	0.0	1.961656e-01	-5.103088e-02	0.0	1.851645e-01	-5.230167e-02	0.0	1.744878e-01	-5.411670e-02	0.0	1.640576e-01	-5.588984e-02	0.0	1.538407e-01	-5.738705e-02	0.0	1.438521e-01	-5.869724e-02	0.0	1.341086e-01	-5.981998e-02	0.0	1.245499e-01	-5.948890e-02	0.0	1.152459e-01	-5.916664e-02	0.0	1.064139e-01	-5.746964e-02	0.0	9.794919e-02	-5.505515e-02	0.0	8.980140e-02	-5.251159e-02	0.0	8.231383e-02	-4.892711e-02	0.0	7.504909e-02	-4.544930e-02	0.0	6.816726e-02	-4.176783e-02	0.0	6.160592e-02	-3.799473e-02	0.0	5.524221e-02	-3.435527e-02	0.0	4.901483e-02	-3.095125e-02	0.0	4.298940e-02	-2.765762e-02	0.0	3.703168e-02	-2.472553e-02	0.0	3.125807e-02	-2.191989e-02	0.0	2.563657e-02	-1.930000e-02	0.0	2.023818e-02	-1.670785e-02	0.0	1.510182e-02	-1.405331e-02	0.0	1.034598e-02	-1.114785e-02	0.0	5.975101e-03	-8.035377e-03	0.0	2.192015e-03	-4.485317e-03	0.0	3.898979e-02	2.923316e-02	0.0	4.443722e-02	3.075369e-02	0.0	4.054682e-02	3.615789e-02	0.0	8.648171e+01	2.667388e+01	0.0	8.175631e+01	3.566962e+01	0.0	7.560739e+01	2.500603e+01	0.0	7.253798e+01	-1.220798e+01	0.0	7.476136e+01	-2.459215e+01	0.0	8.607981e+01	-1.558881e+01	0.0	9.078027e+01	-4.876952e+00	0.0	2.812752e+01	2.510151e+01	0.0	3.842203e+01	2.774466e+01	0.0	3.185675e+01	3.623700e+01	0.0	7.256286e+01	3.400989e+01	0.0	6.844494e+01	-3.604419e+01	0.0	7.591745e+01	-4.338070e+01	0.0	8.101787e+01	-3.627906e+01	0.0	8.625604e+01	-2.787044e+01	0.0	5.547314e+01	2.303033e+01	0.0	4.858681e+01	3.023030e+01	0.0	4.527971e+01	1.986836e+01	0.0	6.392329e+01	-5.208376e+01	0.0	6.086247e+01	-5.952146e+01	0.0	6.874608e+01	-5.988355e+01	0.0	6.894986e+01	5.965026e+01	0.0	7.273982e+01	5.052523e+01	0.0	6.018770e+01	6.466138e+01	0.0	4.840735e+01	-6.451073e+01	0.0	4.577966e+01	-7.379468e+01	0.0	5.435581e+01	-7.208029e+01	0.0	6.818242e+01	-4.500796e+01	0.0	4.880610e+01	7.044553e+01	0.0	3.787351e+01	6.807480e+01	0.0	2.892438e+01	7.135965e+01	0.0	3.047033e+01	5.800682e+01	0.0	5.403272e+01	-5.466570e+01	0.0	5.586128e+01	-6.362945e+01	0.0	3.955690e+01	7.827234e+01	0.0	2.898814e+01	8.391578e+01	0.0	3.751505e+01	-6.709683e+01	0.0	2.656500e+01	-7.507731e+01	0.0	3.869189e+01	-7.983953e+01	0.0	-3.909475e+00	3.483867e+01	0.0	-2.541348e+00	4.471895e+01	0.0	-1.033269e+01	4.048998e+01	0.0	8.310781e-01	-2.991596e-02	0.0	8.347255e-01	-2.259705e-02	0.0	8.268783e-01	-2.056981e-02	0.0	9.018558e-01	-7.499986e-03	0.0	4.161122e-01	7.320682e-02	0.0	4.077834e-01	6.732458e-02	0.0	3.967770e-01	6.753940e-02	0.0	4.093632e-01	-6.985029e-02	0.0	1.294902e+00	-1.433967e+00	0.0	6.981381e-01	-1.774016e+00	0.0	1.264411e+00	-2.260740e+00	0.0	4.403697e-01	-6.852910e-02	0.0	4.514083e-01	-7.117395e-02	0.0	4.361398e-01	-8.806768e-02	0.0	4.316518e-01	-7.435881e-02	0.0	4.188095e-01	-8.269952e-02	0.0	1.024928e+00	2.343199e-01	0.0	9.378515e-01	2.301414e-01	0.0	9.878564e-01	1.671420e-01	0.0	9.318315e-01	1.901406e-02	0.0	9.257006e-01	2.423570e-02	0.0	9.249960e-01	1.843716e-02	0.0	8.911627e-01	2.772679e-02	0.0	9.188853e-01	2.120321e-02	0.0	9.104674e-01	2.466158e-02	0.0	9.191518e-01	2.878058e-02	0.0	8.680367e-01	-1.350259e-02	0.0	9.154835e-01	-1.561839e-02	0.0	9.149782e-01	-7.164682e-03	0.0	9.082431e-01	-1.190914e-02	0.0	1.864162e-01	-8.801855e-02	0.0	1.817871e-01	-1.027657e-01	0.0	2.004903e-01	-
[...]
POINT_DATA 1848

SCALARS Density double 1
LOOKUP_TABLE default
1.291448e+00	1.291541e+00	1.292010e+00	1.292212e+00	1.292122e+00	1.292053e+00	1.292023e+00	1.291978e+00	1.291922e+00	1.291873e+00	1.291834e+00	1.291815e+00	1.291826e+00	1.291877e+00	1.291956e+00	1.292037e+00	1.292108e+00	1.292162e+00	1.292205e+00	1.292236e+00	1.292259e+00	1.292276e+00	1.292288e+00	1.292299e+00	1.292308e+00	1.292318e+00	1.292328e+00	1.292341e+00	1.292356e+00	1.292375e+00	1.292402e+00	1.292435e+00	1.292477e+00	1.292529e+00	1.292591e+00	1.292664e+00	1.292734e+00	1.292787e+00	1.292795e+00	1.292769e+00	1.292717e+00	1.292652e+00	1.292585e+00	1.292518e+00	1.292449e+00	1.292395e+00	1.292414e+00	1.292296e+00	1.291865e+00	1.568069e+00	1.290692e+00	1.275509e+00	1.189996e+00	1.175757e+00	1.170482e+00	1.199509e+00	1.213328e+00	1.237783e+00	1.251841e+00	1.265238e+00	1.271701e+00	1.267631e+00	1.249295e+00	1.213249e+00	1.138485e+00	1.060922e+00	9.620001e-01	8.666863e-01	7.759623e-01	7.111569e-01	6.547285e-01	6.058515e-01	5.833466e-01	5.523846e-01	5.418213e-01	5.233860e-01	5.082471e-01	5.096711e-01	5.068125e-01	5.132513e-01	5.411933e-01	6.997785e-01	1.066678e+00	1.196100e+00	1.207114e+00	1.203507e+00	1.203656e+00	1.187294e+00	1.184829e+00	1.166321e+00	1.147477e+00	1.128790e+00	1.100756e+00	1.076039e+00	1.058297e+00	1.031135e+00	1.013514e+00	1.007694e+00	9.934689e-01	9.890565e-01	9.810730e-01	9.760208e-01	9.755120e-01	9.698498e-01	9.663855e-01	9.583615e-01	9.525814e-01	9.478995e-01	9.406011e-01	9.374918e-01	9.277632e-01	9.222956e-01	9.171791e-01	9.107424e-01	9.156770e-01	9.095234e-01	9.204331e-01	9.409590e-01	9.616239e-01	1.005336e+00	1.031086e+00	1.074202e+00	1.116905e+00	1.147213e+00	1.184648e+00	1.207559e+00	1.226001e+00	1.244941e+00	1.251637e+00	1.257085e+00	1.263125e+00	1.259982e+00	1.263887e+00	1.263478e+00	1.262080e+00	1.263332e+00	1.262887e+00	1.263657e+00	1.265897e+00	1.267860e+00	1.270463e+00	1.273626e+00	1.276934e+00	1.280807e+00	1.285365e+00	1.289474e+00	1.301346e+00	1.294340e+00	1.308630e+00	1.417991e+00	1.372863e+00	1.379528e+00	1.379923e+00	1.382996e+00	1.384333e+00	1.386008e+00	1.388432e+00	1.389633e+00	1.391449e+00	1.393460e+00	1.394046e+00	1.397538e+00	1.397317e+00	1.401593e+00	1.403082e+00	1.402225e+00	1.406819e+00	1.403514e+00	1.407252e+00	1.405135e+00	1.401566e+00	1.399033e+00	1.390614e+00	1.385119e+00	1.372389e+00	1.362346e+00	1.347277e+00	1.322645e+00	1.300299e+00	1.275031e+00	1.231805e+00	1.198326e+00	1.160450e+00	1.106898e+00	1.058166e+00	9.827714e-01	9.737602e-01	1.008779e+00	1.023767e+00	1.064179e+00	1.097809e+00	1.123982e+00	1.156014e+00	1.175457e+00	1.185100e+00	1.193384e+00	1.196211e+00	1.192717e+00	1.191137e+00	1.188347e+00	1.181825e+00	1.180342e+00	1.182458e+00	1.182600e+00	1.191887e+00	1.195981e+00	1.205654e+00	1.216840e+00	1.226425e+00	1.239693e+00	1.252257e+00	1.263512e+00	1.281947e+00	1.295902e+00	1.304035e+00	1.321649e+00	1.323232e+00	1.329199e+00	1.334060e+00	1.315398e+00	1.308354e+00	1.288468e+00	1.248216e+00	1.203670e+00	1.040731e+00	7.748945e-01	7.102009e-01	7.462070e-01	8.385252e-01	9.947329e-01	1.039466e+00	1.133673e+00	1.247883e+00	1.299189e+00	1.360670e+00	1.413380e+00	1.445319e+00	1.474101e+00	1.494349e+00	1.505214e+00	1.518397e+00	1.526963e+00	1.538869e+00	1.558680e+00	1.589078e+00	1.602477e+00	1.701292e+00	1.257192e+00	1.263960e+00	1.270466e+00	1.292090e+00	1.292129e+00	1.292046e+00	1.292123e+00	1.292344e+00	1.292114e+00	1.291746e+00	1.291745e+00	1.291910e+00	1.291739e+00	1.292126e+00	1.292412e+00	1.292398e+00	1.292361e+00	1.292340e+00	1.292069e+00	1.291996e+00	1.292012e+00	1.292482e+00	1.292527e+00	1.292492e+00	1.292014e+00	1.292039e+00	1.291970e+00	1.292624e+00	1.292663e+00	1.292606e+00	1.292427e+00	1.291906e+00	1.291818e+00	1.291761e+00	1.291740e+00	1.292548e+00	1.292573e+00	1.291849e+00	1.291805e+00	1.292716e+00	1.292801e+00	1.292721e+00	1.291033e+00	1.291287e+00	1.291366e+00	1.394305e+00	1.397817e+00	1.394486e+00	1.401855e+00	1.086677e+00	1.096850e+00	1.115691e+00	1.200034e+00	1.302585e+00	1.302494e+00	1.301137e+00	1.190686e+00	1.194997e+00	1.211250e+00	1.197909e+00	1.210132e+00	1.291289e+00	1.267579e+00	1.287874e+00	1.265113e+00	1.265077e+00	1.263935e+00	1.261161e+00	1.263725e+00	1.263323e+00	1.264727e+00	1.404976e+00	1.400035e+00	1.398871e+00	1.401168e+00	1.295147e+00	1.268454e+00	1.305328e+00	9.744429e-01	1.038249e+00	1.127169e+00	1.358842e+00	1.342920e+00	1.346077e+00	1.182393e+00	1.192429e+00	1.178239e+00	1.096430e+00	1.187234e+00	1.163810e+00	1.127824e+00	1.110713e+00	1.134798e+00	1.062580e+00	1.089689e+00	1.065703e+00	1.160929e+00	1.170528e+00	1.158317e+00	1.184343e+00	1.181230e+00	1.199720e+00	1.023196e+00	1.034981e+00	1.089167e+00	1.072698e+00	1.187320e+00	1.005866e+00	1.015796e+00	1.201002e+00	8.978837e-01	1.117016e+00	1.010723e+00	9.992194e-01	1.004900e+00	5.226278e-01	5.128448e-01	5.038757e-01	1.108183e+00	1.163184e+00	9.835029e-01	9.846349e-01	5.287073e-01	6.138995e-01	6.896696e-01	6.538557e-01	9.935014e-01	1.003282e+00	1.261970e+00	1.273757e+00	1.276707e+00	9.964342e-01	9.852314e-01	9.889066e-01	9.793654e-01	9.780090e-01	1.227911e+00	1.218031e+00	1.211923e+00	1.394665e+00	1.396211e+00	1.384197e+00	1.386614e+00	1.390377e+00	1.272516e+00	1.270402e+00	1.273281e+00	1.256323e+00	1.258748e+00	1.253416e+00	1.149656e+00	1.159447e+00	1.099552e+00	1.276539e+00	1.274206e+00	1.276964e+00	1.287878e+00	1.286326e+00	1.290749e+00	1.292942e+00	1.289640e+00	1.284669e+00	1.252538e+00	1.249131e+00	1.282404e+00	1.284137e+00	1.288287e+00	1.311462e+00	1.296814e+00	1.293740e+00	1.302837e+00	1.295031e+00	1.293637e+00	1.294120e+00	1.361402e+00	1.366804e+00	1.358200e+00	1.274358e+00	1.286604e+00	1.278821e+00	1.244811e+00	1.273287e+00	1.259734e+00	1.228973e+00	1.192988e+00	1.187789e+00	1.209835e+00	1.292070e+00	1.285595e+00	1.286059e+00	1.287534e+00	1.263836e+00	1.404984e+00	1.405012e+00	1.404880e+00	1.287808e+00	1.286733e+00	1.284052e+00	1.291712e+00	1.283135e+00	1.292289e+00	1.291036e+00	1.291353e+00	1.291097e+00	1.216899e+00	1.233313e+00	1.221271e+00	1.200691e+00	1.291788e+00	1.291723e+00	1.198373e+00	1.231922e+00	1.195694e+00	1.155899e+00	1.140590e+00	1.124628e+00	1.109609e+00	1.053021e+00	1.105770e+00	1.062303e+00	1.008794e+00	1.019147e+00	1.065269e+00	9.686749e-01	9.428271e-01	9.346818e-01	9.350177e-01	9.411394e-01	9.552942e-01	1.290678e+00	9.238908e-01	9.205075e-01	9.550585e-01	9.551539e-01	9.433405e-01	9.725591e-01	9.639290e-01	1.208655e+00	1.244608e+00	1.251202e+00	9.656920e-01	9.752991e-01	1.069379e+00	1.123311e+00	5.479158e-01	5.358250e-01	5.297730e-01	5.196204e-01	1.291947e+00	1.291861e+00	6.287975e-01	6.375487e-01	7.526927e-01	6.808671e-01	1.291865e+00	1.281428e+00	1.285147e+00	1.286236e+00	1.292006e+00	7.525243e-01	7.796585e-01	6.945739e-01	1.244249e+00	1.266294e+00	1.294164e+00	1.226717e+00	1.286763e+00	1.330492e+00	1.328390e+00	1.387827e+00	7.911078e-01	8.149144e-01	1.211803e+00	1.291384e+00	1.250479e+00	1.320975e+00	1.306578e+00	1.311256e+00	7.748413e-01	8.310998e-01	8.881105e-01	1.335979e+00	1.098941e+00	1.204221e+00	1.181228e+00	1.333628e+00	1.339111e+00	1.336240e+00	1.330766e+00	1.334445e+00	1.093352e+00	1.327624e+00	1.326485e+00	8.666099e-01	1.290476e+00	1.306046e+00	1.293219e+00	1.234506e+00	1.254363e+00	1.245836e+00	1.296344e+00	1.293235e+00	1.282127e+00	1.273276e+00	1.255353e+00	1.270107e+00	1.384602e+00	1.382050e+00	1.271974e+00	1.275894e+00	1.261879e+00	1.522327e+00	1.535930e+00	1.547310e+00	1.301482e+00	1.301278e+00	1.306595e+00	1.355805e+00	1.342435e+00	1.324417e+00	1.339717e+00	1.365856e+00	1.302351e+00	1.301182e+00	1.298940e+00	1.379929e+00	1.378786e+00	1.408561e+00	1.438611e+00	1.420297e+00	1.462860e+00	1.602285e+00	1.647631e+00	1.606034e+00	1.297119e+00	1.296279e+00	1.575425e+00	1.579510e+00	1.285980e+00	1.305616e+00	1.200863e+00	1.195580e+00	1.165652e+00	1.381329e+00	1.388168e+00	1.195107e+00	1.227193e+00	1.172530e+00	1.392578e+00	1.357013e+00	1.369562e+00	1.378953e+00	1.371311e+00	1.387885e+00	1.399278e+00	1.163218e+00	1.222931e+00	1.403548e+00	1.400274e+00	1.403093e+00	1.405462e+00	1.400005e+00	1.401921e+00	1.403831e+00	1.398319e+00	1.395451e+00	1.397147e+00	1.305102e+00	1.303829e+00	1.101765e+00	1.098093e+00	1.040403e+00	1.030439e+00	1.060408e+00	1.110590e+00	1.133335e+00	1.076042e+00	1.036917e+00	1.044494e+00	1.054552e+00	1.013053e+00	8.534389e-01	9.334613e-01	9.787741e-01	8.929216e-01	1.024000e+00	1.049580e+00	1.094230e+00	1.067233e+00	1.094113e+00	1.169401e+00	1.150707e+00	1.292815e+00	1.292771e+00	1.200801e+00	1.195457e+00	1.203864e+00	1.222127e+00	1.221437e+00	1.228478e+00	1.196263e+00	1.196386e+00	1.236076e+00	1.296972e+00	1.298792e+00	1.297211e+00	1.294296e+00	1.294882e+00	1.294820e+00	1.292834e+00	1.292819e+00	1.292763e+00	1.293992e+00	1.292643e+00	1.292634e+00	1.292734e+00	1.461037e+00	1.447888e+00	1.439054e+00	1.347113e+00	1.292904e+00	1.292883e+00	1.292974e+00	1.292733e+00	1.539053e+00	1.523531e+00	1.293011e+00	1.293051e+00	1.293214e+00	1.558354e+00	1.551190e+00	1.292559e+00	1.292491e+00	1.292553e+00	1.298206e+00	1.293631e+00	1.294933e+00	1.294332e+00	1.292715e+00	1.292826e+00	1.293049e+00	1.292488e+00	1.292460e+00	1.292428e+00	1.292330e+00	1.292265e+00	1.292224e+00	1.292406e+00	1.292414e+00	1.292372e+00	1.292363e+00	1.292348e+00	1.292322e+00	1.292312e+00	1.292276e+00	1.292295e+00	1.292298e+00	1.292247e+00	1.292209e+00	1.292213e+00	1.232528e+00	1.260709e+00	1.291698e+00	1.306360e+00	1.291949e+00	1.292018e+00	1.291870e+00	1.291740e+00	1.292077e+00	1.291464e+00	1.292110e+00	1.292147e+00	1.292195e+00	1.101248e+00	1.102689e+00	1.049219e+00	1.020177e+00	1.182086e+00	1.221144e+00	1.215339e+00	1.179492e+00	1.171450e+00	1.308324e+00	1.287043e+00	1.271200e+00	1.304399e+00	1.294231e+00	1.282711e+00	1.249037e+00	1.267564e+00	1.262061e+00	1.292094e+00	1.279495e+00	1.216640e+00	1.291373e+00	1.291808e+00	1.290676e+00	1.292327e+00	1.292315e+00	9.530027e-01	8.556513e-01	9.346000e-01	1.291975e+00	1.291922e+00	1.370460e+00	1.371812e+00	1.398519e+00	1.393289e+00	1.394144e+00	1.396269e+00	1.293501e+00	1.293538e+00	1.292392e+00	1.292702e+00	1.292833e+00	1.292172e+00	1.292599e+00	1.292702e+00	1.292435e+00	1.292744e+00	1.292802e+00	1.293497e+00	1.293175e+00	1.293249e+00	1.291820e+00	1.291620e+00	1.291750e+00	1.291956e+00	1.291778e+00	1.292434e+00	1.291923e+00	1.292008e+00	1.292191e+00	1.293437e+00	1.292888e+00	1.293165e+00	1.293029e+00	1.293743e+00	1.217472e+00	1.230658e+00	1.292211e+00	1.293471e+00	1.304378e+00	1.275398e+00	1.227086e+00	1.291625e+00	1.291540e+00	1.292220e+00	1.291613e+00	1.290396e+00	1.291326e+00	1.291397e+00	1.288695e+00	1.289888e+00	1.289101e+00	1.292411e+00	1.292587e+00	1.292480e+00	1.293128e+00	1.292544e+00	1.292334e+00	1.292365e+00	1.292287e+00	1.292285e+00	1.292258e+00	1.292224e+00	1.292177e+00	1.291775e+00	1.291792e+00	1.291727e+00	1.293075e+00	1.293038e+00	1.292077e+00	1.292027e+00	1.291970e+00	1.291819e+00	1.291775e+00	1.291860e+00	1.291905e+00	1.291967e+00	1.291780e+00	1.291727e+00	1.292307e+00	1.292397e+00	1.293061e+00	1.292727e+00	1.292939e+00	1.292596e+00	1.292520e+00	1.292085e+00	1.292443e+00	1.241582e+00	1.255984e+00	1.197568e+00	1.290698e+00	1.291419e+00	1.291235e+00	1.291882e+00	1.293408e+00	1.292872e+00	1.292956e+00	1.291773e+00	1.291730e+00	1.292413e+00	1.292428e+00	1.292460e+00	1.291496e+00	1.292871e+00	1.293007e+00	1.305634e+00	1.310927e+00	1.294130e+00	1.294253e+00	1.295205e+00	1.291817e+00	1.292943e+00	1.293057e+00	1.295500e+00	1.294380e+00	1.290572e+00	9.376995e-01	1.292081e+00	1.292146e+00	1.292033e+00	1.292339e+00	1.292636e+00	1.292664e+00	1.292447e+00	1.291755e+00	1.291627e+00	1.291720e+00	1.292267e+00	1.292252e+00	1.292347e+00	1.292394e+00	1.292450e+00	1.292505e+00	1.292360e+00	1.292139e+00	1.292042e+00	1.292818e+00	1.292690e+00	1.292821e+00	1.291840e+00	1.291774e+00	1.292854e+00	1.292044e+00	1.292104e+00	1.292416e+00	1.292465e+00	1.292550e+00	1.292642e+00	1.292741e+00	1.292927e+00	1.292920e+00	1.291550e+00	1.292626e+00	1.292078e+00	1.291855e+00	1.292673e+00	1.291612e+00	1.291553e+00	1.291680e+00	1.292080e+00	1.291839e+00	1.292606e+00	1.292595e+00	1.292656e+00	1.292857e+00	1.291821e+00	1.291938e+00	1.291689e+00	1.292468e+00	1.291855e+00	1.291977e+00	1.291892e+00	1.292349e+00	1.292424e+00	1.292532e+00	1.291509e+00	1.291364e+00	1.291319e+00	1.292277e+00	1.291913e+00	1.292755e+00	1.291946e+00	1.292908e+00	1.291903e+00	1.291851e+00	1.291614e+00	1.292799e+00	1.292136e+00	1.291596e+00	1.291662e+00	1.292529e+00	1.292224e+00	1.292292e+00	1.288960e+00	1.286950e+00	1.292607e+00	1.388354e+00	1.389740e+00	1.389748e+00	1.439832e+00	1.452811e+00	1.421015e+00	1.293989e+00	1.292458e+00	1.293291e+00	1.291503e+00	1.292350e+00	1.294365e+00	1.294873e+00	1.291802e+00	1.293218e+00	1.291672e+00	1.291310e+00	1.291649e+00	1.290953e+00	1.288789e+00	1.290807e+00	1.296671e+00	1.294626e+00	1.288937e+00	1.295995e+00	1.293652e+00	1.300176e+00	1.306230e+00	1.339877e+00	1.330398e+00	1.324712e+00	1.289638e+00	1.288458e+00	1.291660e+00	1.292844e+00	1.292008e+00	1.290533e+00	1.292920e+00	6.977978e-01	1.295669e+00	1.421076e+00	1.289501e+00	1.290908e+00	1.288409e+00	1.288246e+00	1.284947e+00	1.289691e+00	1.295079e+00	1.389086e+00	1.384722e+00	1.386976e+00	1.295305e+00	1.293817e+00	1.291951e+00	1.293605e+00	1.283700e+00	1.289396e+00	1.289187e+00	1.296424e+00	1.302437e+00	1.305516e+00	1.311790e+00	1.301977e+00	1.294112e+00	1.300579e+00	1.298415e+00	1.295374e+00	1.290699e+00	5.893266e-01	6.112733e-01	1.298578e+00	1.388600e+00	1.392643e+00	1.300806e+00	1.275395e+00	1.280304e+00	1.386741e+00	1.379058e+00	1.378870e+00	1.296203e+00	1.297400e+00	1.448451e+00	1.426415e+00	1.463804e+00	1.297699e+00	1.296403e+00	1.300081e+00	1.300210e+00	1.307551e+00	1.325464e+00	1.313768e+00	1.285048e+00	1.283725e+00	1.288372e+00	1.293713e+00	6.552039e-01	6.727485e-01	6.162961e-01	1.294169e+00	1.287323e+00	1.292413e+00	1.299457e+00	1.303099e+00	1.299821e+00	1.297360e+00	1.302928e+00	1.302723e+00	1.286041e+00	1.302194e+00	1.301213e+00	1.312401e+00	1.298373e+00	1.286683e+00	1.271915e+00	1.119884e+00	1.166944e+00	1.306496e+00	1.375732e+00	1.379781e+00	1.402569e+00	1.273937e+00	1.267151e+00	1.253673e+00	1.107299e+00	1.062651e+00	1.287377e+00	1.281288e+00	1.294219e+00	1.301490e+00	1.285364e+00	1.267583e+00	1.287219e+00	1.281082e+00	1.075396e+00	1.314003e+00	1.309135e+00	1.322706e+00	1.320417e+00	1.289292e+00	1.299959e+00	1.286540e+00	1.276159e+00	1.350173e+00	1.396490e+00	1.372068e+00	1.309417e+00	1.311437e+00	1.300350e+00	1.286071e+00	1.311323e+00	1.267914e+00	1.301968e+00	1.292142e+00	1.260219e+00	1.294754e+00	1.281227e+00	1.305728e+00	1.287525e+00	1.298167e+00	1.268728e+00	1.307568e+00	1.233916e+00	1.317872e+00	1.351840e+00	1.334256e+00	1.161577e+00	1.106924e+00	1.135005e+00	1.307654e+00	1.210517e+00	1.200601e+00	1.275615e+00	1.193440e+00	1.335758e+00	1.338785e+00	1.327956e+00	1.285503e+00	1.288620e+00	1.339922e+00	1.329479e+00	1.317320e+00	1.312155e+00	1.316547e+00	1.307246e+00	1.253710e+00	7.451940e-01	1.300581e+00	1.282243e+00	1.312224e+00	1.322230e+00	1.318162e+00	1.225606e+00	1.315621e+00	1.214284e+00	1.174349e+00	1.204504e+00	1.197427e+00	1.186045e+00	1.302529e+00	1.299934e+00	1.302663e+00	1.183501e+00	9.357646e-01	7.919113e-01	9.632327e-01	1.346400e+00	1.412734e+00	1.433227e+00	1.442955e+00	1.241965e+00	1.302594e+00	1.305200e+00	1.265354e+00	1.272515e+00	1.184585e+00	1.322194e+00	1.323026e+00	1.315492e+00	1.329773e+00	1.329126e+00	1.301647e+00	1.223745e+00	1.270987e+00	1.393078e+00	1.342584e+00	1.270241e+00	1.296035e+00	1.306967e+00	1.244359e+00	1.257444e+00	1.331609e+00	1.359985e+00	1.111714e+00	1.149050e+00	1.145972e+00	1.176529e+00	1.196415e+00	1.187642e+00	1.180007e+00	1.237718e+00	1.128789e+00	1.281746e+00	1.291699e+00	1.252671e+00	1.259401e+00	1.277653e+00	1.266954e+00	1.248816e+00	1.420185e+00	1.399555e+00	1.495660e+00	1.352070e+00	1.324200e+00	1.277821e+00	1.332336e+00	1.268752e+00	1.297025e+00	1.323742e+00	1.288549e+00	1.293751e+00	1.135800e+00	1.121117e+00	1.266710e+00	1.284418e+00	1.284887e+00	1.216396e+00	1.286561e+00	1.231264e+00	1.266434e+00	1.245581e+00	1.351883e+00	1.049966e+00	1.076214e+00	1.325665e+00	1.362756e+00	1.347631e+00	1.299892e+00	1.279187e+00	1.274764e+00	1.320219e+00	1.354182e+00	1.331781e+00	1.271675e+00	1.295673e+00	1.271807e+00	1.284817e+00	1.377277e+00	1.385765e+00	1.228597e+00	1.213233e+00	1.163216e+00	1.514753e+00	1.361100e+00	1.020420e+00	1.027562e+00	1.135752e+00	1.598244e+00	1.592094e+00	1.626507e+00	1.302477e+00	1.328218e+00	1.358718e+00	1.270585e+00	1.261610e+00	1.266975e+00	1.186322e+00	1.233029e+00	1.314935e+00	1.337527e+00	1.346465e+00	1.181528e+00	1.052213e+00	1.224679e+00	1.141369e+00	1.241477e+00	1.246409e+00	1.203513e+00	1.362138e+00	8.859518e-01	7.507408e-01	1.058426e+00	1.103958e+00	1.100913e+00	1.066596e+00	1.079585e+00	1.288053e+00	9.706370e-01	1.220893e+00	1.296316e+00	1.338063e+00	1.245770e+00	1.386146e+00	1.210637e+00	1.188046e+00	1.188743e+00	1.288285e+00	1.295062e+00	1.284479e+00	1.298809e+00	1.263825e+00	1.262645e+00	1.438387e+00	1.330494e+00	9.643740e-01	9.627512e-01	9.560537e-01	9.403570e-01	1.265152e+00	1.283280e+00	1.325551e+00	1.334401e+00	1.279558e+00	1.324805e+00	1.403749e+00	1.339895e+00	1.354040e+00	1.450533e+00	1.374324e+00	1.421436e+00	1.174692e+00	1.114653e+00	9.953109e-01	1.022983e+00	1.014269e+00	1.010979e+00	1.282105e+00	1.285207e+00	1.285603e+00	1.235389e+00	1.202122e+00	1.215615e+00	1.210096e+00	1.110045e+00	1.397074e+00	1.422994e+00	1.428001e+00	1.269879e+00	1.347953e+00	1.349811e+00	1.359994e+00	1.079839e+00	1.072471e+00	1.106333e+00	9.719936e-01	8.263114e-01	5.962811e-01	8.710310e-01	1.055385e+00	1.180514e+00	1.213846e+00	1.253970e+00	1.056248e+00	1.296765e+00	1.317233e+00	1.345158e+00	1.332889e+00	1.285964e+00	1.360481e+00	1.371921e+00	1.300072e+00	1.293751e+00	1.526405e+00	1.385219e+00	1.413232e+00	1.246938e+00	1.246383e+00	1.266593e+00	1.350700e+00	1.024287e+00	1.039418e+00	8.875245e-01	7.770410e-01	1.400900e+00	1.250800e+00	1.191133e+00	1.196719e+00	1.116679e+00	1.140029e+00	1.344389e+00	1.342016e+00	1.240135e+00	1.569386e+00	1.468921e+00	1.260215e+00	1.227257e+00	1.136461e+00	1.160519e+00	1.252344e+00	1.264359e+00	1.366653e+00	1.376958e+00	1.040707e+00	1.026443e+00	1.024583e+00	1.004110e+00	1.369181e+00	1.359916e+00	1.009962e+00	9.753210e-01	9.972887e-01	1.333473e+00	1.255862e+00	1.322518e+00	1.388400e+00	1.394193e+00	1.388398e+00	1.180966e+00	1.174942e+00	1.468646e+00	1.391262e+00	1.353835e+00	1.296731e+00	1.272743e+00	1.293938e+00	1.289697e+00	1.161913e+00	1.206196e+00	1.164909e+00	1.041014e+00	9.751165e-01	9.979173e-01	9.967723e-01	1.210805e+00	1.201909e+00	1.046480e+00	1.047562e+00	9.784452e-01	1.154775e+00	1.136821e+00	1.395292e+00	1.397556e+00	1.375526e+00	1.168403e+00	1.380442e+00	1.141637e+00	1.277546e+00	1.311711e+00	8.858880e-01	7.975835e-01	1.275835e+00	1.297375e+00	8.010551e-01	1.195188e+00	1.177350e+00	1.181435e+00	1.259759e+00	1.246775e+00	1.252948e+00	1.242892e+00	1.240282e+00	1.293852e+00	1.327125e+00	1.318690e+00	1.304797e+00	1.162902e+00	1.143428e+00	1.250499e+00	1.344675e+00	1.060885e+00	5.715215e-01	5.381076e-01	5.586631e-01	1.245978e+00	5.645045e-01	5.954520e-01	5.397517e-01	1.291778e+00	1.503781e+00	1.491925e+00	1.508341e+00	1.032082e+00	1.024295e+00	1.193921e+00	9.905572e-01	9.914221e-01	9.454856e-01	1.214826e+00	1.208522e+00	1.215697e+00	1.212843e+00	1.205834e+00	1.313367e+00	1.317946e+00	1.230407e+00	1.018973e+00	9.501081e-01	1.196430e+00	1.380644e+00	1.220861e+00	1.217788e+00	1.229914e+00	1.182030e+00	1.138895e+00	1.256149e+00	1.275576e+00	1.298675e+00	1.299055e+00	1.383308e+00	1.381530e+00	1.171737e+00	1.009601e+00	1.027489e+00	1.263113e+00	1.270119e+00	1.306873e+00	1.114833e+00	1.205825e+00	1.145491e+00	1.256602e+00	1.337486e+00	1.004346e+00	1.004359e+00	1.467704e+00	1.250729e+00	1.109949e+00	1.245806e+00	6.002904e-01	5.587246e-01	1.272196e+00	1.268317e+00	1.361727e+00	1.377918e+00	1.368170e+00	1.327682e+00	1.328905e+00	1.291618e+00	1.287515e+00	1.316782e+00	1.316505e+00	1.265845e+00	1.428750e+00	1.450070e+00	1.400706e+00	1.288375e+00	1.293425e+00	1.297929e+00	1.299630e+00	6.929908e-01	1.503021e+00	1.404803e+00	1.404523e+00	9.752956e-01	9.897070e-01	1.115277e+00	1.140321e+00	1.154781e+00	1.106710