# vtk DataFile Version 3.0
vtk output
ASCII
DATASET UNSTRUCTURED_GRID
POINTS 198 double
0.000000e+00	0.000000e+00	0.0	3.140697e-03	3.890505e-03	0.0	6.433162e-03	7.890484e-03	0.0	1.086798e-02	1.093704e-02	0.0	1.550174e-02	1.403265e-02	0.0	2.073784e-02	1.648223e-02	0.0	2.617890e-02	1.897963e-02	0.0	3.196821e-02	2.119981e-02	0.0	3.796655e-02	2.348001e-02	0.0	4.420786e-02	2.574205e-02	0.0	5.065263e-02	2.810443e-02	0.0	5.728985e-02	3.060880e-02	0.0	6.409421e-02	3.332398e-02	0.0	7.105539e-02	3.628555e-02	0.0	7.816451e-02	3.950647e-02	0.0	8.546027e-02	4.290745e-02	0.0	9.312561e-02	4.607876e-02	0.0	1.010712e-01	4.920679e-02	0.0	1.095383e-01	5.158972e-02	0.0	1.182943e-01	5.382024e-02	0.0	1.275123e-01	5.506975e-02	0.0	1.369834e-01	5.634029e-02	0.0	1.467904e-01	5.662136e-02	0.0	1.568513e-01	5.690970e-02	0.0	1.671619e-01	5.672513e-02	0.0	1.777218e-01	5.627225e-02	0.0	1.885247e-01	5.571832e-02	0.0	1.995413e-01	5.468001e-02	0.0	2.107999e-01	5.361891e-02	0.0	2.222794e-01	5.237557e-02	0.0	2.339813e-01	5.101060e-02	0.0	2.459127e-01	4.964443e-02	0.0	2.580935e-01	4.852727e-02	0.0	2.704885e-01	4.739046e-02	0.0	2.831180e-01	4.671998e-02	0.0	2.959684e-01	4.642432e-02	0.0	3.090071e-01	4.619220e-02	0.0	3.221956e-01	4.716244e-02	0.0	3.355537e-01	4.814516e-02	0.0	3.490203e-01	4.961281e-02	0.0	3.625927e-01	5.148174e-02	0.0	3.762974e-01	5.337942e-02	0.0	3.900911e-01	5.551445e-02	0.0	4.039928e-01	5.766620e-02	0.0	4.180162e-01	5.964004e-02	0.0	4.321437e-01	6.146079e-02	0.0	4.463409e-01	6.326077e-02	0.0	4.606504e-01	6.451223e-02	0.0	4.749974e-01	6.576698e-02	0.0	4.893859e-01	6.675829e-02	0.0	5.037959e-01	6.755375e-02	0.0	5.181999e-01	6.831460e-02	0.0	5.325940e-01	6.878291e-02	0.0	5.469505e-01	6.925001e-02	0.0	5.612580e-01	6.957067e-02	0.0	5.755003e-01	6.980679e-02	0.0	5.896615e-01	7.000304e-02	0.0	6.037286e-01	6.999607e-02	0.0	6.176866e-01	6.998914e-02	0.0	6.315202e-01	6.979597e-02	0.0	6.452178e-01	6.951597e-02	0.0	6.587662e-01	6.918063e-02	0.0	6.721472e-01	6.858739e-02	0.0	6.853584e-01	6.800168e-02	0.0	6.983704e-01	6.711580e-02	0.0	7.111835e-01	6.609461e-02	0.0	7.237859e-01	6.497484e-02	0.0	7.361224e-01	6.331972e-02	0.0	7.482456e-01	6.169320e-02	0.0	7.600360e-01	5.944969e-02	0.0	7.715544e-01	5.697458e-02	0.0	7.827705e-01	5.426682e-02	0.0	7.935790e-01	5.094167e-02	0.0	8.041553e-01	4.768797e-02	0.0	8.143413e-01	4.404349e-02	0.0	8.242837e-01	4.045666e-02	0.0	8.340039e-01	3.699513e-02	0.0	8.434945e-01	3.364340e-02	0.0	8.527901e-01	3.051542e-02	0.0	8.619742e-01	2.787312e-02	0.0	8.709138e-01	2.530113e-02	0.0	8.797164e-01	2.321534e-02	0.0	8.882960e-01	2.127593e-02	0.0	8.966507e-01	1.948771e-02	0.0	9.048022e-01	1.794565e-02	0.0	9.127114e-01	1.644942e-02	0.0	9.203937e-01	1.506729e-02	0.0	9.278420e-01	1.374340e-02	0.0	9.350546e-01	1.245059e-02	0.0	9.420339e-01	1.117989e-02	0.0	9.487870e-01	9.950051e-03	0.0	9.553125e-01	8.729521e-03	0.0	9.616203e-01	7.549682e-03	0.0	9.677107e-01	6.386805e-03	0.0	9.735919e-01	5.259594e-03	0.0	9.792652e-01	4.150072e-03	0.0	9.847380e-01	3.071240e-03	0.0	9.900139e-01	2.015851e-03	0.0	9.950975e-01	9.819402e-04	0.0	1.000000e+00	0.000000e+00	0.0	9.950054e-01	2.298442e-04	0.0	9.898211e-01	4.247047e-04	0.0	9.844422e-01	5.698851e-04	0.0	9.788643e-01	6.719423e-04	0.0	9.730831e-01	7.504018e-04	0.0	9.670937e-01	7.726167e-04	0.0	9.608917e-01	7.721728e-04	0.0	9.544729e-01	7.068362e-04	0.0	9.478326e-01	6.252196e-04	0.0	9.409680e-01	4.476110e-04	0.0	9.338734e-01	2.640498e-04	0.0	9.265483e-01	-2.902869e-05	0.0	9.189865e-01	-3.549633e-04	0.0	9.111873e-01	-7.578326e-04	0.0	9.031503e-01	-1.284141e-03	0.0	8.948667e-01	-1.826593e-03	0.0	8.863530e-01	-2.618619e-03	0.0	8.775914e-01	-3.463574e-03	0.0	8.685961e-01	-4.489379e-03	0.0	8.593730e-01	-5.755751e-03	0.0	8.499017e-01	-7.082680e-03	0.0	8.402512e-01	-8.896684e-03	0.0	8.303504e-01	-1.075773e-02	0.0	8.202840e-01	-1.305652e-02	0.0	8.099968e-01	-1.552766e-02	0.0	7.995280e-01	-1.829010e-02	0.0	7.888834e-01	-2.135453e-02	0.0	7.780205e-01	-2.453780e-02	0.0	7.670240e-01	-2.810291e-02	0.0	7.558044e-01	-3.174037e-02	0.0	7.443584e-01	-3.542217e-02	0.0	7.326958e-01	-3.915798e-02	0.0	7.208160e-01	-4.291984e-02	0.0	7.085814e-01	-4.621363e-02	0.0	6.961540e-01	-4.955934e-02	0.0	6.834215e-01	-5.241064e-02	0.0	6.703815e-01	-5.471089e-02	0.0	6.571735e-01	-5.704076e-02	0.0	6.436499e-01	-5.812673e-02	0.0	6.299682e-01	-5.913712e-02	0.0	6.161352e-01	-5.977808e-02	0.0	6.021587e-01	-5.993019e-02	0.0	5.880727e-01	-6.008349e-02	0.0	5.738909e-01	-5.994365e-02	0.0	5.596272e-01	-5.978841e-02	0.0	5.452958e-01	-5.970903e-02	0.0	5.309112e-01	-5.971251e-02	0.0	5.164888e-01	-5.971768e-02	0.0	5.020442e-01	-5.984408e-02	0.0	4.875920e-01	-5.997055e-02	0.0	4.731472e-01	-6.005029e-02	0.0	4.587248e-01	-6.009193e-02	0.0	4.443405e-01	-6.010772e-02	0.0	4.300107e-01	-5.986146e-02	0.0	4.157483e-01	-5.961635e-02	0.0	4.015744e-01	-5.915005e-02	0.0	3.875001e-01	-5.855384e-02	0.0	3.735377e-01	-5.791846e-02	0.0	3.597104e-01	-5.704957e-02	0.0	3.460184e-01	-5.618919e-02	0.0	3.324837e-01	-5.519918e-02	0.0	3.191126e-01	-5.415399e-02	0.0	3.059124e-01	-5.311111e-02	0.0	2.928963e-01	-5.203356e-02	0.0	2.800703e-01	-5.097175e-02	0.0	2.674281e-01	-5.014297e-02	0.0	2.549865e-01	-4.942849e-02	0.0	2.427569e-01	-4.886062e-02	0.0	2.307335e-01	-4.892903e-02	0.0	2.189391e-01	-4.899614e-02	0.0	2.074225e-01	-4.983251e-02	0.0	1.961656e-01	-5.103088e-02	0.0	1.851645e-01	-5.230167e-02	0.0	1.744878e-01	-5.411670e-02	0.0	1.640576e-01	-5.588984e-02	0.0	1.538407e-01	-5.738705e-02	0.0	1.438521e-01	-5.869724e-02	0.0	1.341086e-01	-5.981998e-02	0.0	1.245499e-01	-5.948890e-02	0.0	1.152459e-01	-5.916664e-02	0.0	1.064139e-01	-5.746964e-02	0.0	9.794919e-02	-5.505515e-02	0.0	8.980140e-02	-5.251159e-02	0.0	8.231383e-02	-4.892711e-02	0.0	7.504909e-02	-4.544930e-02	0.0	6.816726e-02	-4.176783e-02	0.0	6.160592e-02	-3.799473e-02	0.0	5.524221e-02	-3.435527e-02	0.0	4.901483e-02	-3.095125e-02	0.0	4.298940e-02	-2.765762e-02	0.0	3.703168e-02	-2.472553e-02	0.0	3.125807e-02	-2.191989e-02	0.0	2.563657e-02	-1.930000e-02	0.0	2.023818e-02	-1.670785e-02	0.0	1.510182e-02	-1.405331e-02	0.0	1.034598e-02	-1.114785e-02	0.0	5.975101e-03	-8.035377e-03	0.0	2.192015e-03	-4.485317e-03	0.0	
CELLS 198	594
2	48	49	2	49	50	2	50	51	2	51	52	2	52	53	2	53	54	2	54	55	2	55	56	2	56	57	2	57	58	2	58	59	2	59	60	2	60	61	2	61	62	2	62	63	2	63	64	2	64	65	2	65	66	2	66	67	2	67	68	2	68	69	2	69	70	2	70	71	2	71	72	2	72	73	2	73	74	2	74	75	2	75	76	2	76	77	2	77	78	2	78	79	2	79	80	2	80	81	2	81	82	2	82	83	2	83	84	2	84	85	2	85	86	2	86	87	2	87	88	2	88	89	2	89	90	2	90	91	2	91	92	2	92	93	2	93	94	2	94	95	2	95	96	2	96	97	2	97	98	2	98	99	2	99	100	2	100	101	2	101	102	2	102	103	2	103	104	2	104	105	2	105	106	2	106	107	2	107	108	2	108	109	2	109	110	2	110	111	2	111	112	2	112	113	2	113	114	2	114	115	2	115	116	2	116	117	2	117	118	2	118	119	2	119	120	2	120	121	2	121	122	2	122	123	2	123	124	2	124	125	2	125	126	2	126	127	2	127	128	2	128	129	2	129	130	2	130	131	2	131	132	2	132	133	2	133	134	2	134	135	2	135	136	2	136	137	2	137	138	2	138	139	2	139	140	2	140	141	2	141	142	2	142	143	2	143	144	2	144	145	2	145	146	2	146	147	2	147	148	2	148	149	2	149	150	2	150	151	2	151	152	2	152	153	2	153	154	2	154	155	2	155	156	2	156	157	2	157	158	2	158	159	2	159	160	2	160	161	2	161	162	2	162	163	2	163	164	2	164	165	2	165	166	2	166	167	2	167	168	2	168	169	2	169	170	2	170	171	2	171	172	2	172	173	2	173	174	2	174	175	2	175	176	2	176	177	2	177	178	2	178	179	2	179	180	2	180	181	2	181	182	2	0	1	2	1	2	2	2	3	2	3	4	2	4	5	2	5	6	2	6	7	2	7	8	2	8	9	2	9	10	2	10	11	2	11	12	2	12	13	2	13	14	2	14	15	2	15	16	2	16	17	2	17	18	2	18	19	2	19	20	2	20	21	2	21	22	2	22	23	2	23	24	2	24	25	2	25	26	2	26	27	2	27	28	2	28	29	2	29	30	2	30	31	2	31	32	2	32	33	2	33	34	2	34	35	2	35	36	2	36	37	2	37	38	2	38	39	2	39	40	2	40	41	2	41	42	2	42	43	2	43	44	2	44	45	2	45	46	2	46	47	2	47	48	2	182	183	2	183	184	2	184	185	2	185	186	2	186	187	2	187	188	2	188	189	2	189	190	2	190	191	2	191	192	2	192	193	2	193	194	2	194	195	2	195	196	2	196	197	2	197	0	
CELL_TYPES 198
3	3	3	3	3	3	3	3	3	3	3	3	3	3	3	3	3	3	3	3	3	3	3	3	3	3	3	3	3	3	3	3	3	3	3	3	3	3	3	3	3	3	3	3	3	3	3	3	3	3	3	3	3	3	3	3	3	3	3	3	3	3	3	3	3	3	3	3	3	3	3	3	3	3	3	3	3	3	3	3	3	3	3	3	3	3	3	3	3	3	3	3	3	3	3	3	3	3	3	3	3	3	3	3	3	3	3	3	3	3	3	3	3	3	3	3	3	3	3	3	3	3	3	3	3	3	3	3	3	3	3	3	3	3	3	3	3	3	3	3	3	3	3	3	3	3	3	3	3	3	3	3	3	3	3	3	3	3	3	3	3	3	3	3	3	3	3	3	3	3	3	3	3	3	3	3	3	3	3	3	3	3	3	3	3	3	3	3	3	3	3	3	3	3	3	3	3	3	
POINT_DATA 198

SCALARS Density double 1
LOOKUP_TABLE default
1.568069e+00	1.290692e+00	1.275509e+00	1.189996e+00	1.175757e+00	1.170482e+00	1.199509e+00	1.213328e+00	1.237783e+00	1.251841e+00	1.265238e+00	1.271701e+00	1.267631e+00	1.249295e+00	1.213249e+00	1.138485e+00	1.060922e+00	9.620001e-01	8.666863e-01	7.759623e-01	7.111569e-01	6.547285e-01	6.058515e-01	5.833466e-01	5.523846e-01	5.418213e-01	5.233860e-01	5.082471e-01	5.096711e-01	5.068125e-01	5.132513e-01	5.411933e-01	6.997785e-01	1.066678e+00	1.196100e+00	1.207114e+00	1.203507e+00	1.203656e+00	1.187294e+00	1.184829e+00	1.166321e+00	1.147477e+00	1.128790e+00	1.100756e+00	1.076039e+00	1.058297e+00	1.031135e+00	1.013514e+00	1.007694e+00	9.934689e-01	9.890565e-01	9.810730e-01	9.760208e-01	9.755120e-01	9.698498e-01	9.663855e-01	9.583615e-01	9.525814e-01	9.478995e-01	9.406011e-01	9.374918e-01	9.277632e-01	9.222956e-01	9.171791e-01	9.107424e-01	9.156770e-01	9.095234e-01	9.204331e-01	9.409590e-01	9.616239e-01	1.005336e+00	1.031086e+00	1.074202e+00	1.116905e+00	1.147213e+00	1.184648e+00	1.207559e+00	1.226001e+00	1.244941e+00	1.251637e+00	1.257085e+00	1.263125e+00	1.259982e+00	1.263887e+00	1.263478e+00	1.262080e+00	1.263332e+00	1.262887e+00	1.263657e+00	1.265897e+00	1.267860e+00	1.270463e+00	1.273626e+00	1.276934e+00	1.280807e+00	1.285365e+00	1.289474e+00	1.301346e+00	1.294340e+00	1.308630e+00	1.417991e+00	1.372863e+00	1.379528e+00	1.379923e+00	1.382996e+00	1.384333e+00	1.386008e+00	1.388432e+00	1.389633e+00	1.391449e+00	1.393460e+00	1.394046e+00	1.397538e+00	1.397317e+00	1.401593e+00	1.403082e+00	1.402225e+00	1.406819e+00	1.403514e+00	1.407252e+00	1.405135e+00	1.401566e+00	1.399033e+00	1.390614e+00	1.385119e+00	1.372389e+00	1.362346e+00	1.347277e+00	1.322645e+00	1.300299e+00	1.275031e+00	1.231805e+00	1.198326e+00	1.160450e+00	1.106898e+00	1.058166e+00	9.827714e-01	9.737602e-01	1.008779e+00	1.023767e+00	1.064179e+00	1.097809e+00	1.123982e+00	1.156014e+00	1.175457e+00	1.185100e+00	1.193384e+00	1.196211e+00	1.192717e+00	1.191137e+00	1.188347e+00	1.181825e+00	1.180342e+00	1.182458e+00	1.182600e+00	1.191887e+00	1.195981e+00	1.205654e+00	1.216840e+00	1.226425e+00	1.239693e+00	1.252257e+00	1.263512e+00	1.281947e+00	1.295902e+00	1.304035e+00	1.321649e+00	1.323232e+00	1.329199e+00	1.334060e+00	1.315398e+00	1.308354e+00	1.288468e+00	1.248216e+00	1.203670e+00	1.040731e+00	7.748945e-01	7.102009e-01	7.462070e-01	8.385252e-01	9.947329e-01	1.039466e+00	1.133673e+00	1.247883e+00	1.299189e+00	1.360670e+00	1.413380e+00	1.445319e+00	1.474101e+00	1.494349e+00	1.505214e+00	1.518397e+00	1.526963e+00	1.538869e+00	1.558680e+00	1.589078e+00	1.602477e+00	1.701292e+00	
VECTORS Momentum double
2.470391e+01	1.889698e+02	0.0	1.604480e+02	1.904230e+02	0.0	2.048875e+02	1.884091e+02	0.0	2.407270e+02	1.627189e+02	0.0	2.624810e+02	1.472892e+02	0.0	2.729961e+02	1.264590e+02	0.0	2.770413e+02	1.165863e+02	0.0	2.783301e+02	1.060417e+02	0.0	2.778047e+02	1.029123e+02	0.0	2.762968e+02	1.006171e+02	0.0	2.744526e+02	1.020148e+02	0.0	2.728412e+02	1.059903e+02	0.0	2.721765e+02	1.122477e+02	0.0	2.744200e+02	1.206108e+02	0.0	2.816590e+02	1.295574e+02	0.0	2.911745e+02	1.282640e+02	0.0	3.003692e+02	1.221244e+02	0.0	3.051738e+02	1.039349e+02	0.0	3.049878e+02	8.233661e+01	0.0	2.978008e+02	5.803230e+01	0.0	2.899214e+02	3.938470e+01	0.0	2.803415e+02	2.314803e+01	0.0	2.678832e+02	8.367893e+00	0.0	2.629886e+02	1.325359e+00	0.0	2.535775e+02	-7.673777e+00	0.0	2.511744e+02	-1.201814e+01	0.0	2.454128e+02	-1.776627e+01	0.0	2.396252e+02	-2.306128e+01	0.0	2.402313e+02	-2.502511e+01	0.0	2.388978e+02	-2.695529e+01	0.0	2.422977e+02	-2.840435e+01	0.0	2.433569e+02	-2.534645e+01	0.0	2.520406e+02	-2.605928e+01	0.0	2.506545e+02	-1.659050e+01	0.0	2.435559e+02	-6.315319e+00	0.0	2.350297e+02	-3.233880e+00	0.0	2.308899e+02	6.373914e+00	0.0	2.330229e+02	1.701237e+01	0.0	2.345385e+02	2.100435e+01	0.0	2.388660e+02	2.926721e+01	0.0	2.439409e+02	3.374899e+01	0.0	2.489419e+02	3.644963e+01	0.0	2.552669e+02	3.956844e+01	0.0	2.612486e+02	3.868786e+01	0.0	2.654117e+02	3.577201e+01	0.0	2.706188e+02	3.475581e+01	0.0	2.744903e+02	2.951060e+01	0.0	2.759518e+02	2.397257e+01	0.0	2.779516e+02	2.162806e+01	0.0	2.785883e+02	1.721847e+01	0.0	2.797324e+02	1.509834e+01	0.0	2.804013e+02	1.199423e+01	0.0	2.804216e+02	9.057329e+00	0.0	2.810257e+02	7.724213e+00	0.0	2.809382e+02	5.454169e+00	0.0	2.817282e+02	4.304956e+00	0.0	2.819536e+02	1.923120e+00	0.0	2.821740e+02	-1.923643e-01	0.0	2.828166e+02	-2.044122e+00	0.0	2.826326e+02	-4.885917e+00	0.0	2.834463e+02	-6.332292e+00	0.0	2.831003e+02	-9.661528e+00	0.0	2.832495e+02	-1.259501e+01	0.0	2.837682e+02	-1.593013e+01	0.0	2.824746e+02	-2.097098e+01	0.0	2.839994e+02	-2.370083e+01	0.0	2.819883e+02	-3.125138e+01	0.0	2.810184e+02	-3.783785e+01	0.0	2.798115e+02	-4.518467e+01	0.0	2.735339e+02	-5.553415e+01	0.0	2.711940e+02	-6.177910e+01	0.0	2.628828e+02	-7.211902e+01	0.0	2.530693e+02	-7.790634e+01	0.0	2.438963e+02	-8.077953e+01	0.0	2.314075e+02	-8.322074e+01	0.0	2.226244e+02	-7.979028e+01	0.0	2.143943e+02	-7.595370e+01	0.0	2.057157e+02	-7.098284e+01	0.0	2.010994e+02	-6.269666e+01	0.0	1.983151e+02	-5.701119e+01	0.0	1.957358e+02	-5.145431e+01	0.0	1.959865e+02	-4.530514e+01	0.0	1.956604e+02	-4.317771e+01	0.0	1.957391e+02	-3.956971e+01	0.0	1.966454e+02	-3.719413e+01	0.0	1.968003e+02	-3.634380e+01	0.0	1.969579e+02	-3.520619e+01	0.0	1.969609e+02	-3.515190e+01	0.0	1.961338e+02	-3.543738e+01	0.0	1.949886e+02	-3.548258e+01	0.0	1.935168e+02	-3.568745e+01	0.0	1.917475e+02	-3.586011e+01	0.0	1.898821e+02	-3.587963e+01	0.0	1.877338e+02	-3.591168e+01	0.0	1.852777e+02	-3.585890e+01	0.0	1.823008e+02	-3.576363e+01	0.0	1.779161e+02	-3.535269e+01	0.0	1.742357e+02	-3.473565e+01	0.0	1.624560e+02	-3.465862e+01	0.0	1.742233e+02	-6.624065e+00	0.0	2.568170e+02	-1.495888e+01	0.0	2.345472e+02	-7.080170e+00	0.0	2.349135e+02	-5.413393e+00	0.0	2.329961e+02	-3.597736e+00	0.0	2.326010e+02	-2.059611e+00	0.0	2.312793e+02	-4.082948e-01	0.0	2.305539e+02	1.183762e+00	0.0	2.296277e+02	2.560848e+00	0.0	2.286699e+02	4.394436e+00	0.0	2.276871e+02	5.896395e+00	0.0	2.264291e+02	7.468030e+00	0.0	2.255321e+02	9.377520e+00	0.0	2.244943e+02	1.062862e+01	0.0	2.233194e+02	1.315823e+01	0.0	2.223247e+02	1.451455e+01	0.0	2.201859e+02	1.752448e+01	0.0	2.192107e+02	2.085180e+01	0.0	2.185822e+02	2.288082e+01	0.0	2.176609e+02	2.744584e+01	0.0	2.174413e+02	3.015738e+01	0.0	2.159376e+02	3.545128e+01	0.0	2.169493e+02	4.075837e+01	0.0	2.184526e+02	4.550340e+01	0.0	2.203380e+02	5.168370e+01	0.0	2.235882e+02	5.638863e+01	0.0	2.268998e+02	6.264495e+01	0.0	2.321592e+02	6.735958e+01	0.0	2.367668e+02	7.302704e+01	0.0	2.437248e+02	7.898457e+01	0.0	2.533999e+02	8.168773e+01	0.0	2.615873e+02	8.377312e+01	0.0	2.697053e+02	8.588788e+01	0.0	2.811855e+02	8.210601e+01	0.0	2.893004e+02	7.764965e+01	0.0	2.963230e+02	7.255734e+01	0.0	3.055412e+02	6.094594e+01	0.0	3.056605e+02	5.483792e+01	0.0	3.135452e+02	4.010337e+01	0.0	3.163558e+02	2.402116e+01	0.0	3.122203e+02	1.876464e+01	0.0	3.135479e+02	8.754550e+00	0.0	3.100600e+02	3.418136e+00	0.0	3.065545e+02	1.906684e-01	0.0	3.034659e+02	-3.276676e+00	0.0	2.989871e+02	-2.442411e+00	0.0	2.961336e+02	-7.209997e-01	0.0	2.947079e+02	5.925248e-02	0.0	2.934092e+02	1.369575e+00	0.0	2.928311e+02	2.629382e+00	0.0	2.934831e+02	2.063765e+00	0.0	2.934093e+02	1.259997e+00	0.0	2.935049e+02	7.160975e-01	0.0	2.932996e+02	-2.308780e+00	0.0	2.931586e+02	-5.054880e+00	0.0	2.917129e+02	-7.206496e+00	0.0	2.902021e+02	-1.094122e+01	0.0	2.871309e+02	-1.255829e+01	0.0	2.851560e+02	-1.545846e+01	0.0	2.818972e+02	-1.768226e+01	0.0	2.777805e+02	-1.877268e+01	0.0	2.734898e+02	-2.060280e+01	0.0	2.682430e+02	-2.089625e+01	0.0	2.618265e+02	-2.110313e+01	0.0	2.560482e+02	-2.133164e+01	0.0	2.501629e+02	-1.864970e+01	0.0	2.447598e+02	-1.484187e+01	0.0	2.384763e+02	-1.242157e+01	0.0	2.311413e+02	-4.608864e+00	0.0	2.280516e+02	1.151807e+00	0.0	2.251020e+02	8.514881e+00	0.0	2.262457e+02	2.037968e+01	0.0	2.329786e+02	2.567558e+01	0.0	2.369718e+02	3.351407e+01	0.0	2.461385e+02	4.178832e+01	0.0	2.577704e+02	4.143656e+01	0.0	2.630946e+02	3.525981e+01	0.0	2.741541e+02	3.174091e+01	0.0	2.859125e+02	7.909088e+00	0.0	2.977743e+02	-1.133655e+01	0.0	3.108502e+02	-3.883305e+01	0.0	3.243534e+02	-7.979871e+01	0.0	3.170014e+02	-9.414427e+01	0.0	3.097267e+02	-1.216620e+02	0.0	2.917276e+02	-1.399797e+02	0.0	2.732942e+02	-1.383773e+02	0.0	2.556913e+02	-1.418397e+02	0.0	2.377428e+02	-1.363300e+02	0.0	2.249932e+02	-1.258966e+02	0.0	2.147009e+02	-1.174089e+02	0.0	2.063402e+02	-1.070393e+02	0.0	1.998626e+02	-9.750911e+01	0.0	1.934452e+02	-9.215069e+01	0.0	1.862777e+02	-8.807567e+01	0.0	1.751765e+02	-8.723082e+01	0.0	1.543768e+02	-8.675496e+01	0.0	1.212557e+02	-8.021436e+01	0.0	7.979148e+01	-6.120135e+01	0.0	-5.779071e+00	4.262366e+00	0.0	
SCALARS Energy double 1
LOOKUP_TABLE default
3.433619e+05	2.867636e+05	2.852856e+05	2.681989e+05	2.659827e+05	2.648797e+05	2.708864e+05	2.735686e+05	2.785563e+05	2.813425e+05	2.840605e+05	2.854068e+05	2.846682e+05	2.811981e+05	2.744239e+05	2.595958e+05	2.442295e+05	2.240544e+05	2.044001e+05	1.852232e+05	1.714186e+05	1.592500e+05	1.483231e+05	1.434430e+05	1.364355e+05	1.341720e+05	1.300271e+05	1.265080e+05	1.268793e+05	1.261998e+05	1.278694e+05	1.331661e+05	1.648616e+05	2.397720e+05	2.664771e+05	2.683144e+05	2.673265e+05	2.675050e+05	2.641494e+05	2.639260e+05	2.603577e+05	2.567236e+05	2.532352e+05	2.477630e+05	2.428729e+05	2.395521e+05	2.341722e+05	2.306060e+05	2.295482e+05	2.266475e+05	2.258230e+05	2.242262e+05	2.231826e+05	2.231246e+05	2.219526e+05	2.213071e+05	2.196820e+05	2.185185e+05	2.176175e+05	2.161155e+05	2.155542e+05	2.135509e+05	2.124616e+05	2.114821e+05	2.100894e+05	2.112455e+05	2.098832e+05	2.120851e+05	2.162540e+05	2.201121e+05	2.290113e+05	2.338977e+05	2.422767e+05	2.506561e+05	2.563163e+05	2.636484e+05	2.679926e+05	2.713900e+05	2.750708e+05	2.762910e+05	2.772673e+05	2.784987e+05	2.777928e+05	2.785954e+05	2.785277e+05	2.782293e+05	2.784942e+05	2.783989e+05	2.785286e+05	2.789564e+05	2.793124e+05	2.797927e+05	2.803884e+05	2.810043e+05	2.817292e+05	2.825812e+05	2.832818e+05	2.856761e+05	2.837373e+05	2.871092e+05	3.141742e+05	3.034500e+05	3.048834e+05	3.048729e+05	3.055068e+05	3.057278e+05	3.060500e+05	3.065226e+05	3.067346e+05	3.070770e+05	3.074491e+05	3.075356e+05	3.082346e+05	3.081400e+05	3.090104e+05	3.092412e+05	3.090278e+05	3.099891e+05	3.092663e+05	3.100701e+05	3.095874e+05	3.089116e+05	3.084800e+05	3.068316e+05	3.058621e+05	3.033853e+05	3.015672e+05	2.986813e+05	2.939199e+05	2.897719e+05	2.849575e+05	2.764219e+05	2.700995e+05	2.627019e+05	2.520548e+05	2.425797e+05	2.271428e+05	2.258294e+05	2.330193e+05	2.356668e+05	2.439868e+05	2.505838e+05	2.556920e+05	2.620761e+05	2.657756e+05	2.675731e+05	2.691953e+05	2.696928e+05	2.689252e+05	2.686417e+05	2.680555e+05	2.667048e+05	2.663824e+05	2.668150e+05	2.667457e+05	2.685822e+05	2.692282e+05	2.711224e+05	2.732512e+05	2.749927e+05	2.775092e+05	2.798239e+05	2.818076e+05	2.853609e+05	2.879678e+05	2.893814e+05	2.927779e+05	2.927277e+05	2.938411e+05	2.947394e+05	2.908627e+05	2.897295e+05	2.857692e+05	2.778231e+05	2.691188e+05	2.353659e+05	1.820865e+05	1.704707e+05	1.788231e+05	1.985625e+05	2.317421e+05	2.404483e+05	2.598032e+05	2.826031e+05	2.920617e+05	3.040525e+05	3.140984e+05	3.200035e+05	3.254781e+05	3.292315e+05	3.311157e+05	3.336007e+05	3.351108e+05	3.372758e+05	3.408910e+05	3.465093e+05	3.484161e+05	3.689482e+05	
SCALARS Pressure double 1
LOOKUP_TABLE default
1.327123e+05	1.050975e+05	1.019659e+05	9.309012e+04	9.098337e+04	9.048497e+04	9.329102e+04	9.480442e+04	9.724129e+04	9.872316e+04	1.000724e+05	1.006884e+05	1.001914e+05	9.809460e+04	9.392499e+04	8.605432e+04	7.787206e+04	6.801397e+04	5.873051e+04	5.036311e+04	4.449243e+04	3.952904e+04	3.561668e+04	3.366411e+04	3.127143e+04	3.032788e+04	2.887569e+04	2.779853e+04	2.785957e+04	2.767118e+04	2.795642e+04	3.114309e+04	4.759495e+04	8.407712e+04	9.666534e+04	9.817179e+04	9.806470e+04	9.793147e+04	9.631928e+04	9.579455e+04	9.374351e+04	9.165643e+04	8.947135e+04	8.643254e+04	8.381822e+04	8.175247e+04	7.888596e+04	7.710217e+04	7.639299e+04	7.497498e+04	7.445988e+04	7.363281e+04	7.314257e+04	7.304603e+04	7.249894e+04	7.209269e+04	7.128166e+04	7.069027e+04	7.016982e+04	6.945600e+04	6.907338e+04	6.812302e+04	6.755229e+04	6.697837e+04	6.641682e+04	6.675891e+04	6.625299e+04	6.736333e+04	6.942621e+04	7.184206e+04	7.621405e+04	7.914544e+04	8.385663e+04	8.844213e+04	9.198357e+04	9.601719e+04	9.862872e+04	1.008305e+05	1.029000e+05	1.037127e+05	1.043903e+05	1.049926e+05	1.047444e+05	1.051275e+05	1.050710e+05	1.049448e+05	1.050602e+05	1.050202e+05	1.051243e+05	1.053767e+05	1.056167e+05	1.059267e+05	1.062914e+05	1.066796e+05	1.071305e+05	1.076624e+05	1.082093e+05	1.094194e+05	1.092313e+05	1.101979e+05	1.163355e+05	1.133584e+05	1.139486e+05	1.140791e+05	1.143780e+05	1.145632e+05	1.147496e+05	1.150126e+05	1.151653e+05	1.153744e+05	1.156129e+05	1.157042e+05	1.160653e+05	1.160930e+05	1.165209e+05	1.167420e+05	1.166952e+05	1.171288e+05	1.168481e+05	1.171792e+05	1.170191e+05	1.166112e+05	1.162739e+05	1.153661e+05	1.146673e+05	1.132795e+05	1.120483e+05	1.103591e+05	1.076423e+05	1.050060e+05	1.021487e+05	9.756058e+04	9.371869e+04	8.961707e+04	8.400521e+04	7.868506e+04	7.123189e+04	6.980946e+04	7.325131e+04	7.515423e+04	7.910366e+04	8.271702e+04	8.555489e+04	8.889600e+04	9.109927e+04	9.222956e+04	9.312242e+04	9.348320e+04	9.319000e+04	9.299377e+04	9.273304e+04	9.210352e+04	9.197582e+04	9.218553e+04	9.229809e+04	9.328103e+04	9.387805e+04	9.492056e+04	9.618804e+04	9.735636e+04	9.886824e+04	1.003679e+05	1.018013e+05	1.038451e+05	1.054751e+05	1.065308e+05	1.084817e+05	1.090127e+05	1.097109e+05	1.102884e+05	1.084992e+05	1.074937e+05	1.054167e+05	1.011421e+05	9.632172e+04	8.060549e+04	5.317566e+04	4.515014e+04	4.772938e+04	5.601823e+04	7.026410e+04	7.513907e+04	8.438615e+04	9.626094e+04	1.023791e+05	1.090542e+05	1.150113e+05	1.188032e+05	1.220668e+05	1.244609e+05	1.258754e+05	1.273927e+05	1.284834e+05	1.299331e+05	1.323327e+05	1.359434e+05	1.381044e+05	1.475732e+05	
SCALARS Temperature double 1
LOOKUP_TABLE default
2.948332e+02	2.836612e+02	2.784848e+02	2.725138e+02	2.695720e+02	2.693035e+02	2.709359e+02	2.721953e+02	2.736759e+02	2.747263e+02	2.755323e+02	2.758195e+02	2.753392e+02	2.735334e+02	2.696880e+02	2.633150e+02	2.556987e+02	2.462937e+02	2.360653e+02	2.261009e+02	2.179471e+02	2.103223e+02	2.047942e+02	2.010346e+02	1.972135e+02	1.949918e+02	1.921943e+02	1.905361e+02	1.904210e+02	1.902001e+02	1.897500e+02	2.004655e+02	2.369357e+02	2.745838e+02	2.815358e+02	2.833145e+02	2.838536e+02	2.834328e+02	2.826087e+02	2.816536e+02	2.799971e+02	2.782591e+02	2.761222e+02	2.735372e+02	2.713569e+02	2.691062e+02	2.665106e+02	2.650131e+02	2.640921e+02	2.629011e+02	2.622597e+02	2.614571e+02	2.610607e+02	2.608521e+02	2.604099e+02	2.598790e+02	2.591068e+02	2.585163e+02	2.578805e+02	2.572377e+02	2.566691e+02	2.557921e+02	2.551528e+02	2.543963e+02	2.540463e+02	2.539787e+02	2.537593e+02	2.549539e+02	2.570296e+02	2.602579e+02	2.640914e+02	2.674000e+02	2.719455e+02	2.758503e+02	2.793166e+02	2.823514e+02	2.845283e+02	2.865044e+02	2.879366e+02	2.886581e+02	2.892849e+02	2.895630e+02	2.895990e+02	2.897600e+02	2.896980e+02	2.896708e+02	2.897016e+02	2.896936e+02	2.898039e+02	2.899858e+02	2.901961e+02	2.904515e+02	2.907277e+02	2.910338e+02	2.913802e+02	2.917884e+02	2.923360e+02	2.929085e+02	2.939875e+02	2.933506e+02	2.858046e+02	2.876452e+02	2.877458e+02	2.879928e+02	2.881059e+02	2.882934e+02	2.884135e+02	2.885702e+02	2.887035e+02	2.888500e+02	2.890295e+02	2.891362e+02	2.893139e+02	2.894286e+02	2.896091e+02	2.898506e+02	2.899117e+02	2.900386e+02	2.900248e+02	2.900741e+02	2.901143e+02	2.898393e+02	2.895241e+02	2.890028e+02	2.883919e+02	2.875439e+02	2.865155e+02	2.853525e+02	2.835111e+02	2.813202e+02	2.790887e+02	2.759071e+02	2.724467e+02	2.690262e+02	2.643803e+02	2.590413e+02	2.524947e+02	2.497426e+02	2.529588e+02	2.557307e+02	2.589478e+02	2.624812e+02	2.651648e+02	2.678856e+02	2.699844e+02	2.711100e+02	2.718344e+02	2.722427e+02	2.721838e+02	2.719710e+02	2.718452e+02	2.714898e+02	2.714539e+02	2.715860e+02	2.718849e+02	2.726394e+02	2.734451e+02	2.742635e+02	2.753708e+02	2.765374e+02	2.778260e+02	2.792105e+02	2.806755e+02	2.821929e+02	2.835358e+02	2.845876e+02	2.859374e+02	2.869931e+02	2.875345e+02	2.879949e+02	2.873423e+02	2.862123e+02	2.850138e+02	2.822750e+02	2.787708e+02	2.698091e+02	2.390565e+02	2.214666e+02	2.228214e+02	2.327253e+02	2.460693e+02	2.518176e+02	2.593066e+02	2.687240e+02	2.745169e+02	2.792029e+02	2.834731e+02	2.863483e+02	2.884700e+02	2.901423e+02	2.913217e+02	2.922737e+02	2.931222e+02	2.941363e+02	2.957606e+02	2.980185e+02	3.002244e+02	3.021753e+02	
SCALARS Mach double 1
LOOKUP_TABLE default
3.530773e-01	5.713998e-01	6.523082e-01	7.378226e-01	7.777451e-01	7.813303e-01	7.593893e-01	7.422068e-01	7.216929e-01	7.069176e-01	6.954444e-01	6.913277e-01	6.982047e-01	7.236822e-01	7.761941e-01	8.591118e-01	9.534088e-01	1.065190e+00	1.183400e+00	1.297115e+00	1.390149e+00	1.477781e+00	1.541997e+00	1.586104e+00	1.631364e+00	1.657902e+00	1.691574e+00	1.711678e+00	1.713078e+00	1.715765e+00	1.721247e+00	1.592815e+00	1.173424e+00	7.089328e-01	6.055660e-01	5.770752e-01	5.682320e-01	5.751439e-01	5.885034e-01	6.037091e-01	6.294453e-01	6.556719e-01	6.869701e-01	7.236296e-01	7.536714e-01	7.839571e-01	8.180897e-01	8.374401e-01	8.492292e-01	8.643537e-01	8.724462e-01	8.825243e-01	8.874813e-01	8.900849e-01	8.955928e-01	9.021861e-01	9.117383e-01	9.190141e-01	9.268210e-01	9.346856e-01	9.416207e-01	9.522774e-01	9.600169e-01	9.691446e-01	9.733569e-01	9.741698e-01	9.768058e-01	9.624193e-01	9.372262e-01	8.974830e-01	8.492375e-01	8.064826e-01	7.456331e-01	6.908849e-01	6.398044e-01	5.926275e-01	5.570159e-01	5.231054e-01	4.974021e-01	4.840380e-01	4.721761e-01	4.668354e-01	4.661402e-01	4.630190e-01	4.642238e-01	4.647506e-01	4.641531e-01	4.643080e-01	4.621659e-01	4.586145e-01	4.544802e-01	4.494146e-01	4.438824e-01	4.376808e-01	4.305723e-01	4.220654e-01	4.104134e-01	3.979174e-01	3.733697e-01	3.880260e-01	5.353061e-01	5.027170e-01	5.008866e-01	4.963705e-01	4.942913e-01	4.908296e-01	4.886025e-01	4.856822e-01	4.831860e-01	4.804318e-01	4.770389e-01	4.750138e-01	4.716224e-01	4.694230e-01	4.659445e-01	4.612556e-01	4.600640e-01	4.575792e-01	4.578493e-01	4.568821e-01	4.560917e-01	4.614764e-01	4.675855e-01	4.775443e-01	4.890030e-01	5.045540e-01	5.229101e-01	5.430721e-01	5.738629e-01	6.089515e-01	6.432459e-01	6.900683e-01	7.387475e-01	7.850224e-01	8.455483e-01	9.125469e-01	9.919529e-01	1.024653e+00	9.864033e-01	9.530218e-01	9.136996e-01	8.696555e-01	8.354908e-01	8.001077e-01	7.722221e-01	7.570288e-01	7.471548e-01	7.415558e-01	7.423647e-01	7.452845e-01	7.470076e-01	7.518616e-01	7.523502e-01	7.505488e-01	7.464638e-01	7.360898e-01	7.249145e-01	7.134512e-01	6.977536e-01	6.809648e-01	6.620953e-01	6.414075e-01	6.189981e-01	5.951572e-01	5.734577e-01	5.560206e-01	5.330073e-01	5.144501e-01	5.047250e-01	4.963331e-01	5.081938e-01	5.282253e-01	5.488346e-01	5.938477e-01	6.480271e-01	7.745724e-01	1.149065e+00	1.349942e+00	1.334489e+00	1.221595e+00	1.067814e+00	1.000031e+00	9.092714e-01	7.890342e-01	7.098779e-01	6.415236e-01	5.744839e-01	5.258468e-01	4.875501e-01	4.555394e-01	4.317806e-01	4.117540e-01	3.931619e-01	3.698724e-01	3.295356e-01	2.643680e-01	1.806596e-01	1.211217e-02	
SCALARS Pressure_Coefficient double 1
LOOKUP_TABLE default