# vtk DataFile Version 3.0
vtk output
ASCII
DATASET UNSTRUCTURED_GRID
POINTS 1818 double
1.000000e+02	0.000000e+00	0.0	9.917900e+01	1.278772e+01	0.0	9.672949e+01	2.536546e+01	0.0	9.269168e+01	3.752670e+01	0.0	8.713187e+01	4.907176e+01	0.0	8.014136e+01	5.981105e+01	0.0	7.183494e+01	6.956826e+01	0.0	6.234898e+01	7.818315e+01	0.0	5.183926e+01	8.551428e+01	0.0	4.047833e+01	9.144126e+01	0.0	2.845276e+01	9.586679e+01	0.0	1.595999e+01	9.871818e+01	0.0	3.205158e+00	9.994862e+01	0.0	-9.602303e+00	9.953791e+01	0.0	-2.225209e+01	9.749279e+01	0.0	-3.453651e+01	9.384684e+01	0.0	-4.625383e+01	8.865993e+01	0.0	-5.721167e+01	8.201723e+01	0.0	-6.723009e+01	7.402780e+01	0.0	-7.614460e+01	6.482284e+01	0.0	-8.380881e+01	5.455349e+01	0.0	-9.009689e+01	4.338837e+01	0.0	-9.490557e+01	3.151082e+01	0.0	-9.815592e+01	1.911586e+01	0.0	-9.979454e+01	6.407022e+00	0.0	-9.979454e+01	-6.407022e+00	0.0	-9.815592e+01	-1.911586e+01	0.0	-9.490557e+01	-3.151082e+01	0.0	-9.009689e+01	-4.338837e+01	0.0	-8.380881e+01	-5.455349e+01	0.0	-7.614460e+01	-6.482284e+01	0.0	-6.723009e+01	-7.402780e+01	0.0	-5.721167e+01	-8.201723e+01	0.0	-4.625383e+01	-8.865993e+01	0.0	-3.453651e+01	-9.384684e+01	0.0	-2.225209e+01	-9.749279e+01	0.0	-9.602303e+00	-9.953791e+01	0.0	3.205158e+00	-9.994862e+01	0.0	1.595999e+01	-9.871818e+01	0.0	2.845276e+01	-9.586679e+01	0.0	4.047833e+01	-9.144126e+01	0.0	5.183926e+01	-8.551428e+01	0.0	6.234898e+01	-7.818315e+01	0.0	7.183494e+01	-6.956826e+01	0.0	8.014136e+01	-5.981105e+01	0.0	8.713187e+01	-4.907176e+01	0.0	9.269168e+01	-3.752670e+01	0.0	9.672949e+01	-2.536546e+01	0.0	9.917900e+01	-1.278772e+01	0.0	0.000000e+00	0.000000e+00	0.0	3.203081e-03	3.839306e-03	0.0	6.590102e-03	7.753084e-03	0.0	1.097472e-02	1.086939e-02	0.0	1.556126e-02	1.403082e-02	0.0	2.073656e-02	1.660063e-02	0.0	2.611731e-02	1.921621e-02	0.0	3.189805e-02	2.144723e-02	0.0	3.789976e-02	2.370039e-02	0.0	4.422616e-02	2.569282e-02	0.0	5.079500e-02	2.765481e-02	0.0	5.765389e-02	2.943521e-02	0.0	6.477428e-02	3.112131e-02	0.0	7.215855e-02	3.271877e-02	0.0	7.982777e-02	3.410700e-02	0.0	8.775897e-02	3.539661e-02	0.0	9.598259e-02	3.638373e-02	0.0	1.044743e-01	3.715997e-02	0.0	1.132360e-01	3.772662e-02	0.0	1.222585e-01	3.807987e-02	0.0	1.315395e-01	3.829616e-02	0.0	1.410725e-01	3.854895e-02	0.0	1.508573e-01	3.884812e-02	0.0	1.608932e-01	3.917925e-02	0.0	1.711492e-01	4.005766e-02	0.0	1.816542e-01	4.095741e-02	0.0	1.923390e-01	4.238839e-02	0.0	2.032042e-01	4.432362e-02	0.0	2.143071e-01	4.630118e-02	0.0	2.254737e-01	4.910336e-02	0.0	2.368532e-01	5.201992e-02	0.0	2.484555e-01	5.498135e-02	0.0	2.602782e-01	5.797106e-02	0.0	2.723081e-01	6.101316e-02	0.0	2.846788e-01	6.344156e-02	0.0	2.973056e-01	6.561428e-02	0.0	3.101436e-01	6.758200e-02	0.0	3.233129e-01	6.812012e-02	0.0	3.366507e-01	6.866512e-02	0.0	3.501458e-01	6.850896e-02	0.0	3.637869e-01	6.793903e-02	0.0	3.775611e-01	6.734537e-02	0.0	3.914513e-01	6.663078e-02	0.0	4.054497e-01	6.591063e-02	0.0	4.195549e-01	6.570053e-02	0.0	4.337474e-01	6.577142e-02	0.0	4.480012e-01	6.599238e-02	0.0	4.622798e-01	6.696260e-02	0.0	4.765958e-01	6.793535e-02	0.0	4.909230e-01	6.905727e-02	0.0	5.052527e-01	7.024756e-02	0.0	5.195813e-01	7.133851e-02	0.0	5.339132e-01	7.203744e-02	0.0	5.482078e-01	7.273454e-02	0.0	5.624593e-01	7.267092e-02	0.0	5.766476e-01	7.231554e-02	0.0	5.907365e-01	7.168544e-02	0.0	6.046721e-01	7.017654e-02	0.0	6.184998e-01	6.867931e-02	0.0	6.320759e-01	6.633508e-02	0.0	6.454724e-01	6.370111e-02	0.0	6.586757e-01	6.089017e-02	0.0	6.715035e-01	5.719631e-02	0.0	6.841690e-01	5.354915e-02	0.0	6.965538e-01	4.960639e-02	0.0	7.086756e-01	4.545653e-02	0.0	7.206103e-01	4.137071e-02	0.0	7.323887e-01	3.746670e-02	0.0	7.439680e-01	3.364111e-02	0.0	7.554236e-01	3.018747e-02	0.0	7.668517e-01	2.746742e-02	0.0	7.780537e-01	2.480119e-02	0.0	7.892472e-01	2.353989e-02	0.0	8.002358e-01	2.251617e-02	0.0	8.110076e-01	2.212661e-02	0.0	8.215510e-01	2.217453e-02	0.0	8.318436e-01	2.228338e-02	0.0	8.418834e-01	2.249403e-02	0.0	8.516697e-01	2.261895e-02	0.0	8.611971e-01	2.220391e-02	0.0	8.704718e-01	2.179988e-02	0.0	8.794579e-01	2.093446e-02	0.0	8.881839e-01	1.996247e-02	0.0	8.966461e-01	1.889996e-02	0.0	9.048303e-01	1.762712e-02	0.0	9.127722e-01	1.639198e-02	0.0	9.204533e-01	1.506754e-02	0.0	9.278938e-01	1.375666e-02	0.0	9.350988e-01	1.247147e-02	0.0	9.420700e-01	1.119993e-02	0.0	9.488161e-01	9.969017e-03	0.0	9.553354e-01	8.747768e-03	0.0	9.616381e-01	7.567104e-03	0.0	9.677245e-01	6.405102e-03	0.0	9.736025e-01	5.279017e-03	0.0	9.792741e-01	4.174330e-03	0.0	9.847462e-01	3.101383e-03	0.0	9.900224e-01	2.053807e-03	0.0	9.951067e-01	1.026130e-03	0.0	1.000000e+00	0.000000e+00	0.0	9.950052e-01	2.262606e-04	0.0	9.898212e-01	4.271566e-04	0.0	9.844425e-01	5.765666e-04	0.0	9.788649e-01	6.805205e-04	0.0	9.730840e-01	7.595954e-04	0.0	9.670948e-01	7.796606e-04	0.0	9.608933e-01	7.766165e-04	0.0	9.544750e-01	7.074756e-04	0.0	9.478354e-01	6.219795e-04	0.0	9.409716e-01	4.404040e-04	0.0	9.338779e-01	2.527449e-04	0.0	9.265541e-01	-4.802190e-05	0.0	9.189937e-01	-3.827761e-04	0.0	9.111991e-01	-8.348492e-04	0.0	9.031719e-01	-1.479478e-03	0.0	8.948986e-01	-2.143872e-03	0.0	8.864321e-01	-3.317605e-03	0.0	8.777240e-01	-4.590500e-03	0.0	8.688322e-01	-6.242457e-03	0.0	8.597877e-01	-8.440133e-03	0.0	8.504957e-01	-1.069795e-02	0.0	8.411952e-01	-1.384026e-02	0.0	8.316555e-01	-1.707041e-02	0.0	8.218731e-01	-2.037419e-02	0.0	8.118505e-01	-2.375404e-02	0.0	8.015065e-01	-2.691790e-02	0.0	7.907298e-01	-2.946576e-02	0.0	7.797161e-01	-3.206963e-02	0.0	7.681969e-01	-3.297472e-02	0.0	7.564402e-01	-3.387333e-02	0.0	7.444352e-01	-3.407816e-02	0.0	7.321951e-01	-3.383538e-02	0.0	7.197394e-01	-3.359438e-02	0.0	7.070751e-01	-3.338289e-02	0.0	6.942113e-01	-3.316808e-02	0.0	6.811759e-01	-3.367556e-02	0.0	6.679706e-01	-3.458740e-02	0.0	6.546172e-01	-3.569076e-02	0.0	6.412547e-01	-3.803410e-02	0.0	6.277468e-01	-4.040294e-02	0.0	6.141601e-01	-4.307751e-02	0.0	6.004911e-01	-4.597216e-02	0.0	5.867101e-01	-4.886433e-02	0.0	5.727429e-01	-5.129648e-02	0.0	5.586952e-01	-5.374264e-02	0.0	5.444906e-01	-5.548368e-02	0.0	5.301560e-01	-5.661470e-02	0.0	5.157810e-01	-5.768040e-02	0.0	5.013415e-01	-5.772822e-02	0.0	4.868943e-01	-5.777607e-02	0.0	4.724580e-01	-5.755678e-02	0.0	4.580466e-01	-5.715941e-02	0.0	4.436724e-01	-5.678838e-02	0.0	4.293475e-01	-5.657940e-02	0.0	4.150899e-01	-5.637141e-02	0.0	4.009159e-01	-5.653909e-02	0.0	3.868386e-01	-5.688832e-02	0.0	3.728772e-01	-5.736801e-02	0.0	3.590639e-01	-5.836739e-02	0.0	3.453856e-01	-5.935700e-02	0.0	3.319084e-01	-6.087341e-02	0.0	3.186102e-01	-6.257956e-02	0.0	3.055025e-01	-6.440373e-02	0.0	2.926510e-01	-6.670595e-02	0.0	2.799870e-01	-6.897457e-02	0.0	2.675123e-01	-7.116799e-02	0.0	2.552392e-01	-7.330702e-02	0.0	2.431608e-01	-7.527764e-02	0.0	2.311964e-01	-7.643081e-02	0.0	2.194598e-01	-7.756203e-02	0.0	2.079361e-01	-7.756066e-02	0.0	1.966388e-01	-7.688902e-02	0.0	1.856101e-01	-7.604896e-02	0.0	1.750443e-01	-7.368539e-02	0.0	1.647223e-01	-7.137635e-02	0.0	1.548064e-01	-6.855202e-02	0.0	1.452711e-01	-6.530881e-02	0.0	1.359767e-01	-6.214754e-02	0.0	1.270772e-01	-5.865271e-02	0.0	1.184318e-01	-5.520458e-02	0.0	1.100294e-01	-5.183332e-02	0.0	1.018843e-01	-4.850042e-02	0.0	9.397177e-02	-4.526271e-02	0.0	8.628890e-02	-4.212222e-02	0.0	7.883388e-02	-3.907695e-02	0.0	7.160301e-02	-3.612859e-02	0.0	6.457473e-02	-3.332232e-02	0.0	5.776715e-02	-3.060418e-02	0.0	5.114681e-02	-2.804984e-02	0.0	4.472998e-02	-2.560680e-02	0.0	3.852610e-02	-2.323934e-02	0.0	3.253031e-02	-2.094805e-02	0.0	2.681921e-02	-1.853375e-02	0.0	2.135005e-02	-1.609844e-02	0.0	1.631404e-02	-1.325868e-02	0.0	1.161578e-02	-1.026824e-02	0.0	7.268736e-03	-7.097119e-03	0.0	3.373590e-03	-3.673583e-03	0.0	-3.196650e-02	-7.371130e-03	0.0	-2.059157e-02	-1.372655e-02	0.0	-2.248637e-02	-3.699182e-03	0.0	8.651031e+01	2.643448e+01	0.0	8.251288e+01	2.039216e+01	0.0	8.878294e+01	1.744717e+01	0.0	7.546148e+01	-1.275677e+01	0.0	7.555672e+01	-2.495962e+01	0.0	8.703413e+01	-1.792536e+01	0.0	8.625750e+01	-5.048916e+00	0.0	4.618404e+01	3.340134e+01	0.0	4.392616e+01	2.113747e+01	0.0	5.523113e+01	2.400945e+01	0.0	8.142402e+01	3.539350e+01	0.0	7.233072e+01	3.307071e+01	0.0	7.604086e+01	2.442941e+01	0.0	6.857360e+01	-3.559918e+01	0.0	7.549849e+01	-4.390623e+01	0.0	8.108937e+01	-3.652671e+01	0.0	8.662027e+01	-2.846077e+01	0.0	3.439759e+01	3.826352e+01	0.0	3.498201e+01	2.786918e+01	0.0	5.522346e+01	-5.332294e+01	0.0	6.165387e+01	-5.996924e+01	0.0	6.538801e+01	-5.459376e+01	0.0	6.903153e+01	6.058073e+01	0.0	7.261297e+01	5.169729e+01	0.0	6.032742e+01	6.589743e+01	0.0	4.428887e+01	-6.357397e+01	0.0	4.514792e+01	-7.483415e+01	0.0	5.336637e+01	-7.206141e+01	0.0	6.619976e+01	-4.664488e+01	0.0	5.044667e+01	7.347702e+01	0.0	3.247443e+01	6.166906e+01	0.0	3.614705e+01	5.343882e+01	0.0	4.694120e+01	5.885988e+01	0.0	5.526427e+01	-6.326656e+01	0.0	3.075819e+01	8.247672e+01	0.0	3.839184e+01	7.092613e+01	0.0	4.230518e+01	8.036656e+01	0.0	3.757640e+01	-7.206675e+01	0.0	2.847860e+01	-7.572428e+01	0.0	3.866868e+01	-8.095432e+01	0.0	5.935694e+00	4.741940e+01	0.0	-4.521094e+00	4.467511e+01	0.0	2.208811e+00	3.887095e+01	0.0	1.276327e+01	3.851310e+01	0.0	2.045163e+01	8.933426e+01	0.0	1.454723e+01	7.852376e+01	0.0	1.193827e+00	5.320717e+00	0.0	2.752954e+00	3.919263e+00	0.0	4.076401e+00	5.932753e+00	0.0	5.827678e+00	1.837666e-01	0.0	4.314431e+00	6.085548e-01	0.0	4.549006e+00	-6.974878e-01	0.0	2.060156e+00	2.889774e-01	0.0	1.789610e+00	1.364589e-01	0.0	2.103851e+00	-1.382378e-01	0.0	9.273733e-01	2.617712e-01	0.0	9.097262e-01	3.722358e-01	0.0	8.253367e-01	3.165338e-01	0.0	1.036758e+00	3.296031e-02	0.0	1.028159e+00	2.146402e-02	0.0	1.039198e+00	1.805447e-02	0.0	1.053371e+00	4.921968e-02	0.0	1.025955e+00	5.394846e-02	0.0	1.008938e+00	4.573234e-02	0.0	1.018456e+00	3.189771e-02	0.0	9.965859e-01	1.005018e-02	0.0	9.924999e-01	1.291218e-02	0.0	9.920147e-01	9.147896e-03	0.0	9.944096e-01	5.186497e-03	0.0	9.890267e-01	6.269576e-03	0.0	9.719419e-01	1.029641e-02	0.0	9.669343e-01	1.084389e-02	0.0	8.429872e-01	-3.488527e-02	0.0	8.548700e-01	-3.300888e-02	0.0	8.470947e-01	-2.638259e-02
[...]
POINT_DATA 1818

SCALARS Density double 1
LOOKUP_TABLE default
1.291604e+00	1.291683e+00	1.292059e+00	1.292190e+00	1.292109e+00	1.292050e+00	1.292011e+00	1.291959e+00	1.291901e+00	1.291850e+00	1.291808e+00	1.291781e+00	1.291793e+00	1.291842e+00	1.291923e+00	1.292008e+00	1.292083e+00	1.292141e+00	1.292186e+00	1.292218e+00	1.292243e+00	1.292261e+00	1.292275e+00	1.292286e+00	1.292296e+00	1.292307e+00	1.292317e+00	1.292330e+00	1.292345e+00	1.292366e+00	1.292392e+00	1.292426e+00	1.292469e+00	1.292523e+00	1.292592e+00	1.292661e+00	1.292736e+00	1.292793e+00	1.292804e+00	1.292781e+00	1.292731e+00	1.292667e+00	1.292598e+00	1.292527e+00	1.292457e+00	1.292407e+00	1.292423e+00	1.292337e+00	1.291969e+00	1.541830e+00	1.148924e+00	1.151663e+00	1.075795e+00	1.032708e+00	9.895967e-01	9.764818e-01	9.523228e-01	9.401483e-01	9.170888e-01	9.029987e-01	8.833746e-01	8.728676e-01	8.535346e-01	8.298886e-01	7.994532e-01	7.570812e-01	7.267145e-01	7.342346e-01	8.531238e-01	1.129423e+00	1.217012e+00	1.233292e+00	1.256603e+00	1.266451e+00	1.271186e+00	1.282441e+00	1.267044e+00	1.262330e+00	1.244236e+00	1.196674e+00	1.157862e+00	1.118163e+00	1.050110e+00	9.813257e-01	9.382380e-01	8.432790e-01	7.624478e-01	7.275071e-01	6.824864e-01	6.662002e-01	6.659778e-01	6.686282e-01	7.007861e-01	7.489777e-01	7.762165e-01	8.608407e-01	1.005940e+00	1.085858e+00	1.101995e+00	1.072773e+00	1.027292e+00	9.892053e-01	9.347868e-01	8.767349e-01	8.467118e-01	7.880201e-01	7.438970e-01	7.029620e-01	6.462699e-01	6.224201e-01	6.095586e-01	7.328295e-01	1.063070e+00	1.170151e+00	1.195166e+00	1.222379e+00	1.242831e+00	1.262399e+00	1.282551e+00	1.287751e+00	1.297814e+00	1.301696e+00	1.288748e+00	1.286049e+00	1.269211e+00	1.250527e+00	1.234564e+00	1.209283e+00	1.198888e+00	1.194844e+00	1.189801e+00	1.200220e+00	1.202206e+00	1.209610e+00	1.219427e+00	1.225240e+00	1.234518e+00	1.240856e+00	1.246725e+00	1.252793e+00	1.258068e+00	1.264039e+00	1.269415e+00	1.275363e+00	1.281671e+00	1.287810e+00	1.298284e+00	1.304061e+00	1.309596e+00	1.392511e+00	1.362016e+00	1.366731e+00	1.369636e+00	1.371008e+00	1.372797e+00	1.374501e+00	1.377015e+00	1.378413e+00	1.380847e+00	1.383314e+00	1.385315e+00	1.390750e+00	1.390203e+00	1.397290e+00	1.399223e+00	1.396415e+00	1.401762e+00	1.390649e+00	1.390485e+00	1.379853e+00	1.350235e+00	1.328559e+00	1.292514e+00	1.244379e+00	1.210253e+00	1.139007e+00	1.118985e+00	1.145332e+00	1.158155e+00	1.202351e+00	1.240653e+00	1.267218e+00	1.300876e+00	1.321446e+00	1.321235e+00	1.338613e+00	1.332995e+00	1.311522e+00	1.299444e+00	1.274470e+00	1.237666e+00	1.210574e+00	1.171932e+00	1.132280e+00	1.126837e+00	1.110745e+00	1.123420e+00	1.154446e+00	1.172989e+00	1.200266e+00	1.226878e+00	1.242524e+00	1.261307e+00	1.273206e+00	1.277493e+00	1.288419e+00	1.287914e+00	1.288803e+00	1.289186e+00	1.276695e+00	1.273841e+00	1.257762e+00	1.237329e+00	1.213415e+00	1.085168e+00	7.778710e-01	6.633999e-01	6.545040e-01	7.001772e-01	7.943916e-01	8.258894e-01	9.278340e-01	1.038062e+00	1.081376e+00	1.158846e+00	1.207169e+00	1.247905e+00	1.300005e+00	1.332392e+00	1.359653e+00	1.384436e+00	1.404005e+00	1.421465e+00	1.438734e+00	1.453151e+00	1.467082e+00	1.479756e+00	1.488846e+00	1.499384e+00	1.505030e+00	1.516928e+00	1.526285e+00	1.544899e+00	1.576450e+00	1.606440e+00	1.621194e+00	1.687523e+00	1.504989e+00	1.536368e+00	1.517929e+00	1.292098e+00	1.291982e+00	1.291947e+00	1.292160e+00	1.292352e+00	1.292211e+00	1.291871e+00	1.291951e+00	1.292007e+00	1.292063e+00	1.292121e+00	1.292114e+00	1.292065e+00	1.292427e+00	1.292416e+00	1.292380e+00	1.292351e+00	1.291753e+00	1.291889e+00	1.292554e+00	1.292543e+00	1.292500e+00	1.292010e+00	1.292027e+00	1.291958e+00	1.292672e+00	1.292687e+00	1.292627e+00	1.292458e+00	1.291894e+00	1.291752e+00	1.291780e+00	1.291874e+00	1.292590e+00	1.291780e+00	1.291815e+00	1.291848e+00	1.292740e+00	1.292800e+00	1.292739e+00	1.291278e+00	1.291263e+00	1.291018e+00	1.291216e+00	1.291764e+00	1.291693e+00	1.281503e+00	1.284094e+00	1.286956e+00	1.288946e+00	1.288473e+00	1.291568e+00	1.285918e+00	1.283388e+00	1.288831e+00	1.283077e+00	1.268207e+00	1.244378e+00	1.309396e+00	1.310395e+00	1.296074e+00	1.314874e+00	1.310919e+00	1.312701e+00	1.311460e+00	1.305663e+00	1.302313e+00	1.302206e+00	1.302484e+00	1.297059e+00	1.277696e+00	1.272098e+00	1.347810e+00	1.369174e+00	1.360294e+00	9.699168e-01	9.689950e-01	9.355305e-01	8.695820e-01	1.170501e+00	1.152932e+00	1.185010e+00	9.976736e-01	1.065045e+00	1.052928e+00	1.277287e+00	1.253105e+00	1.271618e+00	1.227350e+00	1.239153e+00	1.173812e+00	1.174332e+00	1.119493e+00	1.148203e+00	1.183994e+00	1.188934e+00	1.151684e+00	1.215814e+00	1.221767e+00	8.607281e-01	8.082290e-01	1.247452e+00	1.238436e+00	7.352585e-01	1.250234e+00	1.231421e+00	1.228467e+00	7.941904e-01	7.444353e-01	8.072297e-01	1.207808e+00	1.178902e+00	1.210618e+00	8.964527e-01	8.233602e-01	7.799906e-01	1.292619e+00	1.302087e+00	1.292219e+00	1.264467e+00	1.253159e+00	1.201889e+00	1.216106e+00	1.142865e+00	1.312237e+00	1.301841e+00	1.298226e+00	1.287552e+00	1.198259e+00	1.182278e+00	1.323990e+00	1.330356e+00	1.324024e+00	1.244106e+00	1.271186e+00	1.272590e+00	1.275864e+00	6.708104e-01	6.756628e-01	1.193356e+00	1.224967e+00	1.248074e+00	6.730594e-01	1.256837e+00	1.244911e+00	1.257813e+00	7.577712e-01	6.990115e-01	7.098093e-01	1.088906e+00	1.105294e+00	1.117099e+00	1.097111e+00	1.108237e+00	1.072384e+00	1.062120e+00	1.041463e+00	1.006335e+00	1.102887e+00	1.093611e+00	9.748503e-01	1.014435e+00	9.240818e-01	9.315581e-01	8.825946e-01	6.962237e-01	6.844343e-01	6.862513e-01	7.824637e-01	8.196628e-01	6.972256e-01	8.692525e-01	9.447312e-01	9.448810e-01	8.658870e-01	7.527111e-01	8.893211e-01	1.024567e+00	1.059900e+00	1.028913e+00	1.255633e+00	1.243979e+00	1.290096e+00	1.278033e+00	1.275201e+00	1.210466e+00	1.235060e+00	1.236337e+00	1.225312e+00	1.223873e+00	1.212807e+00	1.272221e+00	1.265850e+00	1.278458e+00	1.208469e+00	1.216884e+00	1.205640e+00	1.213242e+00	1.174491e+00	1.293247e+00	1.296337e+00	1.292003e+00	1.291998e+00	1.302246e+00	1.291734e+00	1.226141e+00	1.219372e+00	1.213836e+00	1.283774e+00	1.286246e+00	1.274337e+00	1.290388e+00	1.291583e+00	1.290979e+00	1.297521e+00	1.298903e+00	1.256935e+00	1.246323e+00	1.242057e+00	1.228405e+00	1.218115e+00	1.286036e+00	1.279494e+00	1.286468e+00	1.064136e+00	1.001997e+00	1.080975e+00	6.938032e-01	7.185156e-01	7.379942e-01	7.461457e-01	1.235573e+00	1.126004e+00	1.243508e+00	1.253362e+00	1.270275e+00	1.250086e+00	1.243094e+00	1.260266e+00	1.273784e+00	1.259445e+00	1.327093e+00	1.324286e+00	1.387277e+00	1.397490e+00	1.421842e+00	1.336226e+00	1.351334e+00	1.358531e+00	1.249135e+00	1.263747e+00	1.253950e+00	1.252261e+00	9.548244e-01	6.857934e-01	1.260846e+00	1.286752e+00	1.279118e+00	1.278889e+00	1.279225e+00	1.260587e+00	1.255745e+00	1.280141e+00	1.265178e+00	1.260143e+00	1.149211e+00	1.184324e+00	1.099896e+00	1.292777e+00	1.286319e+00	1.289770e+00	1.383545e+00	9.606054e-01	1.297123e+00	1.297495e+00	1.295106e+00	1.088593e+00	1.188613e+00	1.210624e+00	1.146443e+00	1.272555e+00	1.272051e+00	1.268115e+00	1.296612e+00	1.292139e+00	1.243401e+00	1.273689e+00	1.242213e+00	1.303721e+00	1.305499e+00	1.303176e+00	1.590525e+00	1.544055e+00	1.540802e+00	1.524499e+00	1.591833e+00	1.617210e+00	1.173512e+00	1.212477e+00	1.343659e+00	1.291285e+00	1.305160e+00	1.277173e+00	1.235405e+00	1.217065e+00	1.201489e+00	1.362629e+00	1.330437e+00	1.343792e+00	1.335999e+00	1.383643e+00	1.373395e+00	1.384871e+00	1.377823e+00	1.386017e+00	1.204230e+00	1.171584e+00	1.203893e+00	1.389543e+00	1.396792e+00	1.322081e+00	1.304712e+00	1.312370e+00	1.396839e+00	1.393821e+00	1.391535e+00	1.393947e+00	1.393108e+00	1.391110e+00	1.389250e+00	1.385334e+00	1.386851e+00	1.387263e+00	1.388117e+00	1.384505e+00	1.387807e+00	1.328161e+00	1.325842e+00	1.317571e+00	1.256473e+00	1.229027e+00	1.314250e+00	1.304914e+00	1.314173e+00	1.321136e+00	1.318288e+00	1.270000e+00	1.292827e+00	1.292779e+00	1.259989e+00	1.272050e+00	1.288094e+00	1.280366e+00	1.283307e+00	1.330431e+00	1.305808e+00	1.338064e+00	1.299783e+00	1.300865e+00	1.303661e+00	1.292756e+00	1.292772e+00	1.292868e+00	1.394819e+00	1.383350e+00	1.375428e+00	1.298535e+00	1.299068e+00	1.292645e+00	1.292621e+00	1.294798e+00	1.294080e+00	1.294430e+00	1.320514e+00	1.335947e+00	1.286813e+00	1.428131e+00	1.439907e+00	1.292924e+00	1.292852e+00	1.292892e+00	1.462759e+00	1.441657e+00	1.445060e+00	1.469717e+00	1.296399e+00	1.298244e+00	1.485688e+00	1.478993e+00	1.412690e+00	1.446380e+00	1.445958e+00	1.265146e+00	1.285603e+00	1.263348e+00	1.289696e+00	1.261020e+00	1.254093e+00	1.187518e+00	1.229918e+00	1.219274e+00	1.240305e+00	1.200660e+00	1.170449e+00	1.170770e+00	1.073393e+00	1.097084e+00	1.031625e+00	8.454671e-01	8.850086e-01	8.072383e-01	7.570419e-01	7.868619e-01	7.283293e-01	1.291903e+00	1.291815e+00	1.154849e+00	1.118962e+00	1.184314e+00	7.355497e-01	1.268525e+00	1.275938e+00	1.278828e+00	1.229675e+00	1.214516e+00	1.291831e+00	1.196867e+00	1.030494e+00	9.917598e-01	1.171028e+00	1.291947e+00	1.241509e+00	1.210272e+00	1.288611e+00	1.289054e+00	1.287307e+00	1.166297e+00	1.130627e+00	1.213367e+00	1.269860e+00	1.238012e+00	1.257780e+00	1.292039e+00	8.715128e-01	8.890885e-01	1.019727e+00	9.586334e-01	9.802112e-01	1.292181e+00	1.291483e+00	1.291764e+00	1.291872e+00	1.291957e+00	1.292039e+00	1.291713e+00	1.292159e+00	1.292206e+00	1.292193e+00	9.571807e-01	1.280908e+00	1.222931e+00	1.311040e+00	1.292280e+00	1.292261e+00	1.292284e+00	1.292231e+00	1.292231e+00	1.292311e+00	1.292324e+00	1.292337e+00	1.292349e+00	1.292426e+00	1.292481e+00	1.292475e+00	1.292427e+00	1.292500e+00	1.292384e+00	1.292369e+00	1.292493e+00	1.292458e+00	1.292420e+00	1.292605e+00	1.292349e+00	1.292360e+00	1.292553e+00	1.127215e+00	1.181039e+00	1.292491e+00	1.293464e+00	1.294066e+00	1.294290e+00	1.353911e+00	1.335570e+00	1.337600e+00	1.292588e+00	1.322955e+00	1.313662e+00	1.314439e+00	1.293212e+00	1.293519e+00	1.293217e+00	1.292677e+00	1.441641e+00	1.471431e+00	1.438340e+00	1.487543e+00	1.513296e+00	1.523719e+00	1.513002e+00	1.542927e+00	1.546360e+00	1.559628e+00	1.561038e+00	1.292304e+00	1.290844e+00	1.292338e+00	1.291555e+00	1.188510e+00	1.155122e+00	1.181021e+00	1.292881e+00	1.292940e+00	1.292663e+00	1.378536e+00	1.293860e+00	1.293915e+00	1.293137e+00	1.293005e+00	1.292343e+00	1.292313e+00	1.292328e+00	1.291860e+00	1.291968e+00	1.291988e+00	1.292818e+00	1.293412e+00	1.291787e+00	1.291722e+00	1.291923e+00	1.292505e+00	1.292448e+00	1.291955e+00	1.291993e+00	1.292179e+00	1.293389e+00	1.294901e+00	1.291680e+00	1.290394e+00	1.291018e+00	1.292167e+00	1.292242e+00	1.292248e+00	1.332222e+00	1.321295e+00	1.292158e+00	1.291780e+00	1.290635e+00	1.289915e+00	1.293175e+00	1.292760e+00	1.292622e+00	1.292710e+00	1.292564e+00	1.292373e+00	1.292398e+00	1.292283e+00	1.292276e+00	1.292144e+00	1.292196e+00	1.292106e+00	1.291763e+00	1.291738e+00	1.291699e+00	1.292866e+00	1.292964e+00	1.293104e+00	1.293011e+00	1.292061e+00	1.292015e+00	1.291978e+00	1.291655e+00	1.291608e+00	1.291745e+00	1.291955e+00	1.291880e+00	1.291898e+00	1.291865e+00	1.292303e+00	1.292413e+00	1.292571e+00	1.292693e+00	1.292790e+00	1.292583e+00	1.292046e+00	1.292426e+00	1.292991e+00	1.323959e+00	1.333856e+00	1.285135e+00	1.033999e+00	1.029555e+00	9.891167e-01	1.291519e+00	1.292468e+00	1.291593e+00	1.291694e+00	1.291510e+00	1.291973e+00	1.292059e+00	1.292337e+00	1.292397e+00	1.292683e+00	1.292131e+00	1.293447e+00	1.293857e+00	1.292959e+00	1.291873e+00	1.291850e+00	1.292849e+00	1.293718e+00	1.295181e+00	1.292707e+00	1.292441e+00	1.291826e+00	1.291694e+00	1.291704e+00	1.292251e+00	1.292191e+00	1.292327e+00	1.292385e+00	1.292359e+00	1.292123e+00	1.292954e+00	1.293057e+00	1.291714e+00	1.292782e+00	1.292832e+00	1.291902e+00	1.292018e+00	1.292439e+00	1.292477e+00	1.292563e+00	1.292304e+00	1.291596e+00	1.292470e+00	1.292520e+00	1.293049e+00	1.385640e+00	1.364182e+00	1.379782e+00	1.291470e+00	1.291470e+00	1.292074e+00	1.292957e+00	1.292599e+00	1.292860e+00	1.291355e+00	1.291046e+00	1.290730e+00	1.291557e+00	1.291423e+00	1.293069e+00	1.292529e+00	1.292413e+00	1.291696e+00	1.291892e+00	1.292083e+00	1.289869e+00	1.217561e+00	1.292440e+00	1.292496e+00	1.291970e+00	1.292044e+00	1.292030e+00	1.291262e+00	1.291852e+00	1.291807e+00	1.291794e+00	1.291895e+00	1.292890e+00	1.291623e+00	1.292812e+00	1.291590e+00	1.291622e+00	1.292526e+00	1.292291e+00	1.292202e+00	1.292221e+00	1.241398e+00	1.156049e+00	1.292915e+00	1.291750e+00	1.291931e+00	1.292744e+00	1.292903e+00	1.371410e+00	1.373521e+00	1.375247e+00	1.295808e+00	1.292903e+00	1.292389e+00	1.291280e+00	1.291577e+00	1.292872e+00	1.292772e+00	1.293538e+00	1.293485e+00	1.291474e+00	1.292916e+00	1.292563e+00	1.288220e+00	1.289151e+00	1.289624e+00	1.291937e+00	1.290242e+00	1.288170e+00	1.286223e+00	1.294633e+00	1.295153e+00	1.219385e+00	1.214398e+00	1.243018e+00	1.295620e+00	1.297895e+00	1.298810e+00	1.295232e+00	1.291861e+00	1.290979e+00	1.290939e+00	8.484070e-01	8.716184e-01	8.836198e-01	1.290120e+00	1.290316e+00	1.290226e+00	1.284846e+00	1.290291e+00	1.294593e+00	1.291512e+00	1.298478e+00	1.296740e+00	1.296081e+00	1.296287e+00	1.296277e+00	1.294855e+00	1.293536e+00	1.296962e+00	1.299964e+00	1.298100e+00	1.291194e+00	1.294552e+00	1.294783e+00	1.110839e+00	1.051699e+00	1.009808e+00	1.282782e+00	1.298863e+00	1.435063e+00	1.469907e+00	1.455492e+00	1.058420e+00	1.121426e+00	1.294605e+00	1.303292e+00	1.463116e+00	1.477351e+00	1.485075e+00	1.295268e+00	1.295061e+00	1.292692e+00	1.293220e+00	1.286161e+00	1.290431e+00	1.289179e+00	1.290871e+00	1.285440e+00	1.278082e+00	1.279711e+00	1.344110e+00	1.356695e+00	1.345858e+00	1.303520e+00	1.301654e+00	1.302694e+00	1.370793e+00	1.297415e+00	1.290613e+00	1.290103e+00	1.303761e+00	1.296557e+00	1.282542e+00	1.290478e+00	1.269571e+00	1.292306e+00	1.300914e+00	1.288460e+00	1.301629e+00	1.288713e+00	1.296154e+00	1.303135e+00	1.299435e+00	1.304387e+00	1.304210e+00	1.355773e+00	1.295413e+00	1.288343e+00	1.295129e+00	1.023941e+00	9.888074e-01	1.292276e+00	1.299973e+00	1.236318e+00	1.262234e+00	1.250020e+00	1.295680e+00	1.298455e+00	1.305743e+00	1.301164e+00	1.288492e+00	1.271368e+00	1.260515e+00	1.258855e+00	1.194873e+00	1.219123e+00	1.312133e+00	1.318998e+00	1.316238e+00	1.278022e+00	1.286425e+00	8.553215e-01	7.758348e-01	1.286870e+00	1.309270e+00	1.308268e+00	1.323418e+00	1.313083e+00	1.319809e+00	1.279155e+00	1.302956e+00	1.306042e+00	1.290658e+00	1.287884e+00	9.362527e-01	9.157846e-01	1.308863e+00	1.304133e+00	1.306870e+00	1.310271e+00	1.288290e+00	1.310839e+00	1.322644e+00	1.309793e+00	1.304733e+00	1.293796e+00	1.295664e+00	1.305184e+00	1.301624e+00	1.304123e+00	1.315294e+00	1.296577e+00	1.293489e+00	1.297516e+00	1.155915e+00	1.303775e+00	1.315033e+00	1.335284e+00	1.322786e+00	1.313834e+00	1.310730e+00	1.264017e+00	1.270414e+00	1.283403e+00	1.260635e+00	1.298757e+00	1.294976e+00	1.287320e+00	1.304535e+00	8.756984e-01	9.316325e-01	9.162558e-01	1.302927e+00	1.297133e+00	1.316797e+00	1.180389e+00	1.293595e+00	1.344153e+00	1.412075e+00	1.432620e+00	1.377727e+00	1.284439e+00	1.308433e+00	1.295063e+00	1.337901e+00	1.371111e+00	1.263420e+00	1.270172e+00	7.430288e-01	1.316131e+00	1.267087e+00	1.300794e+00	1.302798e+00	1.294099e+00	1.321505e+00	1.323357e+00	1.333263e+00	8.142291e-01	9.858865e-01	1.268023e+00	1.247236e+00	1.271616e+00	1.306822e+00	1.212829e+00	1.304860e+00	1.290232e+00	1.367821e+00	1.369236e+00	1.281242e+00	1.273770e+00	1.277302e+00	1.282256e+00	1.333716e+00	1.355330e+00	1.354380e+00	1.345671e+00	1.290533e+00	1.267257e+00	1.239623e+00	1.288538e+00	1.314937e+00	6.687480e-01	6.683996e-01	1.098124e+00	1.325920e+00	1.105542e+00	7.743434e-01	1.250172e+00	1.264859e+00	1.262293e+00	1.320306e+00	1.334196e+00	9.061734e-01	1.073383e+00	1.087948e+00	1.144068e+00	1.145925e+00	1.270217e+00	1.218589e+00	1.272971e+00	1.335265e+00	1.408415e+00	1.404844e+00	1.247870e+00	1.306971e+00	1.206672e+00	1.271328e+00	1.275419e+00	1.304025e+00	1.296194e+00	1.291376e+00	1.329865e+00	1.375728e+00	1.374567e+00	1.309047e+00	1.328160e+00	1.250979e+00	1.239766e+00	1.287218e+00	1.297736e+00	1.384060e+00	1.309599e+00	9.718630e-01	1.309864e+00	1.286629e+00	1.269890e+00	1.260467e+00	1.279288e+00	1.287128e+00	1.317575e+00	1.154495e+00	1.223081e+00	1.194130e+00	1.243645e+00	1.160440e+00	1.033308e+00	1.380190e+00	1.271203e+00	1.256547e+00	1.128338e+00	1.336159e+00	1.310269e+00	7.433232e-01	1.303201e+00	1.305182e+00	1.312392e+00	1.308749e+00	8.932793e-01	9.746026e-01	1.284848e+00	1.305307e+00	1.307928e+00	1.349507e+00	9.550946e-01	9.250470e-01	1.022117e+00	1.290820e+00	9.304818e-01	9.456963e-01	1.079646e+00	1.034551e+00	9.071510e-01	8.243509e-01	8.560827e-01	1.405695e+00	1.259288e+00	1.244767e+00	1.297023e+00	1.271418e+00	1.377514e+00	1.425750e+00	1.398591e+00	1.583625e+00	1.399914e+00	1.422541e+00	1.102812e+00	9.399597e-01	1.272321e+00	1.268781e+00	1.005782e+00	1.287631e+00	1.636994e+00	1.617325e+00	1.365008e+00	1.344864e+00	1.384551e+00	1.382979e+00	1.369675e+00	1.357478e+00	1.316683e+00	1.313671e+00	1.210302e+00	1.327448e+00	1.036666e+00	1.085430e+00	1.082524e+00	1.110157e+00	1.300271e+00	1.301414e+00	1.314070e+00	1.288115e+00	1.290694e+00	1.280531e+00	1.268527e+00	1.280848e+00	1.368956e+00	1.377991e+00	1.396000e+00	1.079215e+00	1.014656e+00	1.126828e+00	1.297680e+00	1.388109e+00	1.354831e+00	1.380305e+00	1.355499e+00	1.350296e+00	1.358750e+00	1.355467e+00	1.362161e+00	1.354042e+00	1.311964e+00	1.276835e+00	1.266553e+00	1.246745e+00	1.250777e+00	1.229473e+00	8.898923e-01	7.495516e-01	8.316961e-01	1.018403e+00	8.493863e-01	8.067875e-01	7.720041e-01	9.636848e-01	9.403000e-01	9.635482e-01	1.065431e+00	1.181241e+00	1.149419e+00	1.172531e+00	8.291535e-01	1.221374e+00	1.240382e+00	1.163210e+00	1.298079e+00	1.294980e+00	1.308679e+00	1.262255e+00	1.198888e+00	1.215731e+00	1.180620e+00	1.137982e+00	1.122277e+00	1.080881e+00	1.339474e+00	1.361649e+00	1.280754e+00	1.295385e+00	1.279729e+00	1.206838e+00	1.235512e+00	1.377714e+00	1.448493e+00	1.334973e+00	1.327108e+00	1.283119e+00	1.302184e+00	1.309771e+00	1.315368e+00	1.266470e+00	1.278998e+00	9.283681e-01	8.830442e-01	9.751015e-01	6.945336e-01	7.146504e-01	1.248092e+00	1.259208e+00	1.356288e+00	1.337077e+00	1.012692e+00	1.079015e+00	8.675156e-01	8.446318e-01	1.500097e+00	1.461801e+00	1.490722e+00	1.297949e+00	1.367435e+00	1.291837e+00	1.329419e+00	1.224902e+00	1.134422e+00	1.033854e+00	1.257982e+00	1.010095e+00	1.071054e+00	1.039617e+00	1.287206e+00	1.275383e+00	1.282183e+00	1.293638e+00	1.283631e+00	1.288719e+00	1.374396e+00	1.201945e+00	1.494677e+00	1.598799e+00	1.587332e+00	1.312345e+00	1.143967e+00	9.351490e-01	9.383244e-01	1.268679e+00	1.253511e+00	1.369051e+00	1.371042e+00	1.366016e+00	1.363837e+00	1.374005e+00	1.287216e+00	9.368913e-01	8.411693e-01	9.086348e-01	1.103941e+00	1.269342e+00	1.233768e+00	1.264067e+00	1.254342e+00	1.354678e+00	1.454691e+00	1.286401e+00	1.371168e+00	1.385453e+00	1.427952e+00	1.018040e+00	1.052503e+00	1.308407e+00	1.014106e+00	7.475770e-01	1.381298e+00	1.375271e+00	1.218592e+00	1.416889e+00	1.303236e+00	1.283448e+00	1.299336e+00	1.480109e+00	1.309185e+00	1.297245e+00	1.310196e+00	1.099337e+00	1.069601e+00	9.515581e-01	1.291627e+00	1.277876e+00	1.268392e+00	1.275217e+00	1.203370e+00	1.197564e+00	1.192722e+00	1.302393e+00	1.325122e+00	1.006038e+00	1.267079e+00	1.254653e+00	1.278101e+00	8.377960e-01	8.093056e-01	8.244467e-01	1.304798e+00	1.155958e+00	1.283903e+00	1.261184e+00	1.272574e+00	1.269251e+00	1.295989e+00	1.298412e+00	7.135772e-01	7.289814e-01	7.214016e-01	1.291587e+00	1.293164e+00	1.240386e+00	1.377895e+00	1.271888e+00	1.438198e+00	1.367747e+00	7.021286e-01	1.394901e+00	1.395742e+00	1.389913e+00	1.393296e+00	1.095484e+00	1.273076e+00	1.253860e+00	1.273951e+00	1.525809e+00	1.562687e+00	1.508523e+00	1.038036e+00	1.208167e+00	1.247370e+00	1.221170e+00	1.188895e+00	1.293553e+00	1.307176e+00	9.458784e-01	1.276157e+00	1.036904e+00	1.273237e+00	1.256448e+00	1.175083e+00	1.300763e+00	1.469386e+00	1.415890e+00	1.310937e+00	8.306577e-01	8.274328e-01	7.734202e-01	1.505462e+00	1.477807e+00	1.243161e+00	1.250116e+00	1.231670e+00	1.270741e+00	1.248238e+00	1.310794e+00	1.305836e+00	1.303302e+00	1.300123e+00	1.309422e+00	1.297057e+00	1.142215e+00	1.075114