# vtk DataFile Version 3.0
vtk output
ASCII
DATASET UNSTRUCTURED_GRID
POINTS 198 double
0.000000e+00	0.000000e+00	0.0	3.203081e-03	3.839306e-03	0.0	6.590102e-03	7.753084e-03	0.0	1.097472e-02	1.086939e-02	0.0	1.556126e-02	1.403082e-02	0.0	2.073656e-02	1.660063e-02	0.0	2.611731e-02	1.921621e-02	0.0	3.189805e-02	2.144723e-02	0.0	3.789976e-02	2.370039e-02	0.0	4.422616e-02	2.569282e-02	0.0	5.079500e-02	2.765481e-02	0.0	5.765389e-02	2.943521e-02	0.0	6.477428e-02	3.112131e-02	0.0	7.215855e-02	3.271877e-02	0.0	7.982777e-02	3.410700e-02	0.0	8.775897e-02	3.539661e-02	0.0	9.598259e-02	3.638373e-02	0.0	1.044743e-01	3.715997e-02	0.0	1.132360e-01	3.772662e-02	0.0	1.222585e-01	3.807987e-02	0.0	1.315395e-01	3.829616e-02	0.0	1.410725e-01	3.854895e-02	0.0	1.508573e-01	3.884812e-02	0.0	1.608932e-01	3.917925e-02	0.0	1.711492e-01	4.005766e-02	0.0	1.816542e-01	4.095741e-02	0.0	1.923390e-01	4.238839e-02	0.0	2.032042e-01	4.432362e-02	0.0	2.143071e-01	4.630118e-02	0.0	2.254737e-01	4.910336e-02	0.0	2.368532e-01	5.201992e-02	0.0	2.484555e-01	5.498135e-02	0.0	2.602782e-01	5.797106e-02	0.0	2.723081e-01	6.101316e-02	0.0	2.846788e-01	6.344156e-02	0.0	2.973056e-01	6.561428e-02	0.0	3.101436e-01	6.758200e-02	0.0	3.233129e-01	6.812012e-02	0.0	3.366507e-01	6.866512e-02	0.0	3.501458e-01	6.850896e-02	0.0	3.637869e-01	6.793903e-02	0.0	3.775611e-01	6.734537e-02	0.0	3.914513e-01	6.663078e-02	0.0	4.054497e-01	6.591063e-02	0.0	4.195549e-01	6.570053e-02	0.0	4.337474e-01	6.577142e-02	0.0	4.480012e-01	6.599238e-02	0.0	4.622798e-01	6.696260e-02	0.0	4.765958e-01	6.793535e-02	0.0	4.909230e-01	6.905727e-02	0.0	5.052527e-01	7.024756e-02	0.0	5.195813e-01	7.133851e-02	0.0	5.339132e-01	7.203744e-02	0.0	5.482078e-01	7.273454e-02	0.0	5.624593e-01	7.267092e-02	0.0	5.766476e-01	7.231554e-02	0.0	5.907365e-01	7.168544e-02	0.0	6.046721e-01	7.017654e-02	0.0	6.184998e-01	6.867931e-02	0.0	6.320759e-01	6.633508e-02	0.0	6.454724e-01	6.370111e-02	0.0	6.586757e-01	6.089017e-02	0.0	6.715035e-01	5.719631e-02	0.0	6.841690e-01	5.354915e-02	0.0	6.965538e-01	4.960639e-02	0.0	7.086756e-01	4.545653e-02	0.0	7.206103e-01	4.137071e-02	0.0	7.323887e-01	3.746670e-02	0.0	7.439680e-01	3.364111e-02	0.0	7.554236e-01	3.018747e-02	0.0	7.668517e-01	2.746742e-02	0.0	7.780537e-01	2.480119e-02	0.0	7.892472e-01	2.353989e-02	0.0	8.002358e-01	2.251617e-02	0.0	8.110076e-01	2.212661e-02	0.0	8.215510e-01	2.217453e-02	0.0	8.318436e-01	2.228338e-02	0.0	8.418834e-01	2.249403e-02	0.0	8.516697e-01	2.261895e-02	0.0	8.611971e-01	2.220391e-02	0.0	8.704718e-01	2.179988e-02	0.0	8.794579e-01	2.093446e-02	0.0	8.881839e-01	1.996247e-02	0.0	8.966461e-01	1.889996e-02	0.0	9.048303e-01	1.762712e-02	0.0	9.127722e-01	1.639198e-02	0.0	9.204533e-01	1.506754e-02	0.0	9.278938e-01	1.375666e-02	0.0	9.350988e-01	1.247147e-02	0.0	9.420700e-01	1.119993e-02	0.0	9.488161e-01	9.969017e-03	0.0	9.553354e-01	8.747768e-03	0.0	9.616381e-01	7.567104e-03	0.0	9.677245e-01	6.405102e-03	0.0	9.736025e-01	5.279017e-03	0.0	9.792741e-01	4.174330e-03	0.0	9.847462e-01	3.101383e-03	0.0	9.900224e-01	2.053807e-03	0.0	9.951067e-01	1.026130e-03	0.0	1.000000e+00	0.000000e+00	0.0	9.950052e-01	2.262606e-04	0.0	9.898212e-01	4.271566e-04	0.0	9.844425e-01	5.765666e-04	0.0	9.788649e-01	6.805205e-04	0.0	9.730840e-01	7.595954e-04	0.0	9.670948e-01	7.796606e-04	0.0	9.608933e-01	7.766165e-04	0.0	9.544750e-01	7.074756e-04	0.0	9.478354e-01	6.219795e-04	0.0	9.409716e-01	4.404040e-04	0.0	9.338779e-01	2.527449e-04	0.0	9.265541e-01	-4.802190e-05	0.0	9.189937e-01	-3.827761e-04	0.0	9.111991e-01	-8.348492e-04	0.0	9.031719e-01	-1.479478e-03	0.0	8.948986e-01	-2.143872e-03	0.0	8.864321e-01	-3.317605e-03	0.0	8.777240e-01	-4.590500e-03	0.0	8.688322e-01	-6.242457e-03	0.0	8.597877e-01	-8.440133e-03	0.0	8.504957e-01	-1.069795e-02	0.0	8.411952e-01	-1.384026e-02	0.0	8.316555e-01	-1.707041e-02	0.0	8.218731e-01	-2.037419e-02	0.0	8.118505e-01	-2.375404e-02	0.0	8.015065e-01	-2.691790e-02	0.0	7.907298e-01	-2.946576e-02	0.0	7.797161e-01	-3.206963e-02	0.0	7.681969e-01	-3.297472e-02	0.0	7.564402e-01	-3.387333e-02	0.0	7.444352e-01	-3.407816e-02	0.0	7.321951e-01	-3.383538e-02	0.0	7.197394e-01	-3.359438e-02	0.0	7.070751e-01	-3.338289e-02	0.0	6.942113e-01	-3.316808e-02	0.0	6.811759e-01	-3.367556e-02	0.0	6.679706e-01	-3.458740e-02	0.0	6.546172e-01	-3.569076e-02	0.0	6.412547e-01	-3.803410e-02	0.0	6.277468e-01	-4.040294e-02	0.0	6.141601e-01	-4.307751e-02	0.0	6.004911e-01	-4.597216e-02	0.0	5.867101e-01	-4.886433e-02	0.0	5.727429e-01	-5.129648e-02	0.0	5.586952e-01	-5.374264e-02	0.0	5.444906e-01	-5.548368e-02	0.0	5.301560e-01	-5.661470e-02	0.0	5.157810e-01	-5.768040e-02	0.0	5.013415e-01	-5.772822e-02	0.0	4.868943e-01	-5.777607e-02	0.0	4.724580e-01	-5.755678e-02	0.0	4.580466e-01	-5.715941e-02	0.0	4.436724e-01	-5.678838e-02	0.0	4.293475e-01	-5.657940e-02	0.0	4.150899e-01	-5.637141e-02	0.0	4.009159e-01	-5.653909e-02	0.0	3.868386e-01	-5.688832e-02	0.0	3.728772e-01	-5.736801e-02	0.0	3.590639e-01	-5.836739e-02	0.0	3.453856e-01	-5.935700e-02	0.0	3.319084e-01	-6.087341e-02	0.0	3.186102e-01	-6.257956e-02	0.0	3.055025e-01	-6.440373e-02	0.0	2.926510e-01	-6.670595e-02	0.0	2.799870e-01	-6.897457e-02	0.0	2.675123e-01	-7.116799e-02	0.0	2.552392e-01	-7.330702e-02	0.0	2.431608e-01	-7.527764e-02	0.0	2.311964e-01	-7.643081e-02	0.0	2.194598e-01	-7.756203e-02	0.0	2.079361e-01	-7.756066e-02	0.0	1.966388e-01	-7.688902e-02	0.0	1.856101e-01	-7.604896e-02	0.0	1.750443e-01	-7.368539e-02	0.0	1.647223e-01	-7.137635e-02	0.0	1.548064e-01	-6.855202e-02	0.0	1.452711e-01	-6.530881e-02	0.0	1.359767e-01	-6.214754e-02	0.0	1.270772e-01	-5.865271e-02	0.0	1.184318e-01	-5.520458e-02	0.0	1.100294e-01	-5.183332e-02	0.0	1.018843e-01	-4.850042e-02	0.0	9.397177e-02	-4.526271e-02	0.0	8.628890e-02	-4.212222e-02	0.0	7.883388e-02	-3.907695e-02	0.0	7.160301e-02	-3.612859e-02	0.0	6.457473e-02	-3.332232e-02	0.0	5.776715e-02	-3.060418e-02	0.0	5.114681e-02	-2.804984e-02	0.0	4.472998e-02	-2.560680e-02	0.0	3.852610e-02	-2.323934e-02	0.0	3.253031e-02	-2.094805e-02	0.0	2.681921e-02	-1.853375e-02	0.0	2.135005e-02	-1.609844e-02	0.0	1.631404e-02	-1.325868e-02	0.0	1.161578e-02	-1.026824e-02	0.0	7.268736e-03	-7.097119e-03	0.0	3.373590e-03	-3.673583e-03	0.0	
CELLS 198	594
2	9	10	2	10	11	2	11	12	2	12	13	2	13	14	2	14	15	2	15	16	2	16	17	2	17	18	2	18	19	2	19	20	2	20	21	2	21	22	2	22	23	2	23	24	2	24	25	2	25	26	2	26	27	2	27	28	2	28	29	2	29	30	2	30	31	2	31	32	2	32	33	2	33	34	2	34	35	2	35	36	2	36	37	2	37	38	2	38	39	2	39	40	2	40	41	2	41	42	2	42	43	2	43	44	2	44	45	2	45	46	2	46	47	2	47	48	2	48	49	2	49	50	2	50	51	2	51	52	2	52	53	2	53	54	2	54	55	2	55	56	2	56	57	2	57	58	2	58	59	2	59	60	2	60	61	2	61	62	2	62	63	2	63	64	2	64	65	2	65	66	2	66	67	2	67	68	2	68	69	2	69	70	2	70	71	2	71	72	2	72	73	2	73	74	2	74	75	2	75	76	2	76	77	2	77	78	2	78	79	2	79	80	2	80	81	2	81	82	2	82	83	2	83	84	2	0	1	2	1	2	2	2	3	2	3	4	2	4	5	2	5	6	2	6	7	2	7	8	2	8	9	2	142	143	2	143	144	2	144	145	2	145	146	2	146	147	2	147	148	2	148	149	2	149	150	2	150	151	2	151	152	2	152	153	2	153	154	2	154	155	2	155	156	2	156	157	2	157	158	2	158	159	2	159	160	2	160	161	2	161	162	2	162	163	2	163	164	2	164	165	2	165	166	2	166	167	2	167	168	2	168	169	2	169	170	2	170	171	2	171	172	2	172	173	2	173	174	2	174	175	2	175	176	2	176	177	2	177	178	2	178	179	2	179	180	2	180	181	2	181	182	2	182	183	2	183	184	2	184	185	2	185	186	2	186	187	2	187	188	2	188	189	2	189	190	2	190	191	2	191	192	2	192	193	2	193	194	2	194	195	2	195	196	2	196	197	2	197	0	2	84	85	2	85	86	2	86	87	2	87	88	2	88	89	2	89	90	2	90	91	2	91	92	2	92	93	2	93	94	2	94	95	2	95	96	2	96	97	2	97	98	2	98	99	2	99	100	2	100	101	2	101	102	2	102	103	2	103	104	2	104	105	2	105	106	2	106	107	2	107	108	2	108	109	2	109	110	2	110	111	2	111	112	2	112	113	2	113	114	2	114	115	2	115	116	2	116	117	2	117	118	2	118	119	2	119	120	2	120	121	2	121	122	2	122	123	2	123	124	2	124	125	2	125	126	2	126	127	2	127	128	2	128	129	2	129	130	2	130	131	2	131	132	2	132	133	2	133	134	2	134	135	2	135	136	2	136	137	2	137	138	2	138	139	2	139	140	2	140	141	2	141	142	
CELL_TYPES 198
3	3	3	3	3	3	3	3	3	3	3	3	3	3	3	3	3	3	3	3	3	3	3	3	3	3	3	3	3	3	3	3	3	3	3	3	3	3	3	3	3	3	3	3	3	3	3	3	3	3	3	3	3	3	3	3	3	3	3	3	3	3	3	3	3	3	3	3	3	3	3	3	3	3	3	3	3	3	3	3	3	3	3	3	3	3	3	3	3	3	3	3	3	3	3	3	3	3	3	3	3	3	3	3	3	3	3	3	3	3	3	3	3	3	3	3	3	3	3	3	3	3	3	3	3	3	3	3	3	3	3	3	3	3	3	3	3	3	3	3	3	3	3	3	3	3	3	3	3	3	3	3	3	3	3	3	3	3	3	3	3	3	3	3	3	3	3	3	3	3	3	3	3	3	3	3	3	3	3	3	3	3	3	3	3	3	3	3	3	3	3	3	3	3	3	3	3	3	
POINT_DATA 198

SCALARS Density double 1
LOOKUP_TABLE default
1.541830e+00	1.148924e+00	1.151663e+00	1.075795e+00	1.032708e+00	9.895967e-01	9.764818e-01	9.523228e-01	9.401483e-01	9.170888e-01	9.029987e-01	8.833746e-01	8.728676e-01	8.535346e-01	8.298886e-01	7.994532e-01	7.570812e-01	7.267145e-01	7.342346e-01	8.531238e-01	1.129423e+00	1.217012e+00	1.233292e+00	1.256603e+00	1.266451e+00	1.271186e+00	1.282441e+00	1.267044e+00	1.262330e+00	1.244236e+00	1.196674e+00	1.157862e+00	1.118163e+00	1.050110e+00	9.813257e-01	9.382380e-01	8.432790e-01	7.624478e-01	7.275071e-01	6.824864e-01	6.662002e-01	6.659778e-01	6.686282e-01	7.007861e-01	7.489777e-01	7.762165e-01	8.608407e-01	1.005940e+00	1.085858e+00	1.101995e+00	1.072773e+00	1.027292e+00	9.892053e-01	9.347868e-01	8.767349e-01	8.467118e-01	7.880201e-01	7.438970e-01	7.029620e-01	6.462699e-01	6.224201e-01	6.095586e-01	7.328295e-01	1.063070e+00	1.170151e+00	1.195166e+00	1.222379e+00	1.242831e+00	1.262399e+00	1.282551e+00	1.287751e+00	1.297814e+00	1.301696e+00	1.288748e+00	1.286049e+00	1.269211e+00	1.250527e+00	1.234564e+00	1.209283e+00	1.198888e+00	1.194844e+00	1.189801e+00	1.200220e+00	1.202206e+00	1.209610e+00	1.219427e+00	1.225240e+00	1.234518e+00	1.240856e+00	1.246725e+00	1.252793e+00	1.258068e+00	1.264039e+00	1.269415e+00	1.275363e+00	1.281671e+00	1.287810e+00	1.298284e+00	1.304061e+00	1.309596e+00	1.392511e+00	1.362016e+00	1.366731e+00	1.369636e+00	1.371008e+00	1.372797e+00	1.374501e+00	1.377015e+00	1.378413e+00	1.380847e+00	1.383314e+00	1.385315e+00	1.390750e+00	1.390203e+00	1.397290e+00	1.399223e+00	1.396415e+00	1.401762e+00	1.390649e+00	1.390485e+00	1.379853e+00	1.350235e+00	1.328559e+00	1.292514e+00	1.244379e+00	1.210253e+00	1.139007e+00	1.118985e+00	1.145332e+00	1.158155e+00	1.202351e+00	1.240653e+00	1.267218e+00	1.300876e+00	1.321446e+00	1.321235e+00	1.338613e+00	1.332995e+00	1.311522e+00	1.299444e+00	1.274470e+00	1.237666e+00	1.210574e+00	1.171932e+00	1.132280e+00	1.126837e+00	1.110745e+00	1.123420e+00	1.154446e+00	1.172989e+00	1.200266e+00	1.226878e+00	1.242524e+00	1.261307e+00	1.273206e+00	1.277493e+00	1.288419e+00	1.287914e+00	1.288803e+00	1.289186e+00	1.276695e+00	1.273841e+00	1.257762e+00	1.237329e+00	1.213415e+00	1.085168e+00	7.778710e-01	6.633999e-01	6.545040e-01	7.001772e-01	7.943916e-01	8.258894e-01	9.278340e-01	1.038062e+00	1.081376e+00	1.158846e+00	1.207169e+00	1.247905e+00	1.300005e+00	1.332392e+00	1.359653e+00	1.384436e+00	1.404005e+00	1.421465e+00	1.438734e+00	1.453151e+00	1.467082e+00	1.479756e+00	1.488846e+00	1.499384e+00	1.505030e+00	1.516928e+00	1.526285e+00	1.544899e+00	1.576450e+00	1.606440e+00	1.621194e+00	1.687523e+00	
VECTORS Momentum double
2.362389e+00	2.146710e+02	0.0	1.654289e+02	1.879703e+02	0.0	1.983938e+02	1.837551e+02	0.0	2.327216e+02	1.639788e+02	0.0	2.580626e+02	1.510404e+02	0.0	2.711161e+02	1.326406e+02	0.0	2.823160e+02	1.224706e+02	0.0	2.874032e+02	1.093072e+02	0.0	2.931569e+02	1.008471e+02	0.0	2.955893e+02	9.044937e+01	0.0	2.996396e+02	8.332214e+01	0.0	3.002149e+02	7.443124e+01	0.0	3.014760e+02	6.817599e+01	0.0	3.020412e+02	6.003653e+01	0.0	3.012705e+02	5.193342e+01	0.0	2.999502e+02	4.272982e+01	0.0	2.947117e+02	3.121457e+01	0.0	2.910711e+02	2.286659e+01	0.0	2.886271e+02	1.603316e+01	0.0	2.878415e+02	7.614180e+00	0.0	2.818979e+02	8.338517e+00	0.0	2.774121e+02	8.521646e+00	0.0	2.694113e+02	8.754495e+00	0.0	2.631428e+02	1.588258e+01	0.0	2.594060e+02	2.230064e+01	0.0	2.551147e+02	2.784163e+01	0.0	2.553191e+02	4.010925e+01	0.0	2.566762e+02	4.575226e+01	0.0	2.584872e+02	5.552549e+01	0.0	2.663727e+02	6.778643e+01	0.0	2.757373e+02	7.040531e+01	0.0	2.834270e+02	7.189292e+01	0.0	2.920777e+02	7.421970e+01	0.0	3.001778e+02	6.764432e+01	0.0	3.028751e+02	5.526575e+01	0.0	3.079944e+02	5.117918e+01	0.0	3.028454e+02	3.120450e+01	0.0	2.914106e+02	1.249323e+01	0.0	2.884538e+02	4.180576e+00	0.0	2.795569e+02	-7.472497e+00	0.0	2.763364e+02	-1.216689e+01	0.0	2.771081e+02	-1.333213e+01	0.0	2.777323e+02	-1.448777e+01	0.0	2.847406e+02	-9.987701e+00	0.0	2.951467e+02	-1.412160e+00	0.0	2.988102e+02	4.102429e+00	0.0	3.087401e+02	1.254357e+01	0.0	3.152245e+02	2.241672e+01	0.0	3.137421e+02	2.333382e+01	0.0	3.138053e+02	2.526729e+01	0.0	3.154849e+02	2.532362e+01	0.0	3.159001e+02	1.993246e+01	0.0	3.168682e+02	1.552505e+01	0.0	3.163228e+02	7.309761e+00	0.0	3.106397e+02	-4.540857e+00	0.0	3.093688e+02	-1.056786e+01	0.0	2.997507e+02	-2.243758e+01	0.0	2.924859e+02	-3.152495e+01	0.0	2.847434e+02	-3.927267e+01	0.0	2.691021e+02	-4.961360e+01	0.0	2.649448e+02	-5.469347e+01	0.0	2.516176e+02	-6.007282e+01	0.0	2.341673e+02	-6.762659e+01	0.0	2.311629e+02	-6.957464e+01	0.0	2.212778e+02	-7.178981e+01	0.0	2.100847e+02	-7.158036e+01	0.0	2.006923e+02	-6.744333e+01	0.0	1.908525e+02	-6.301409e+01	0.0	1.798066e+02	-5.679618e+01	0.0	1.743523e+02	-4.688434e+01	0.0	1.690240e+02	-4.031055e+01	0.0	1.655517e+02	-2.904914e+01	0.0	1.699303e+02	-1.743835e+01	0.0	1.755337e+02	-1.164779e+01	0.0	1.836139e+02	-2.967542e+00	0.0	1.935844e+02	1.513342e+00	0.0	2.034083e+02	3.123349e+00	0.0	2.154139e+02	3.833626e+00	0.0	2.241338e+02	-3.401111e+00	0.0	2.281267e+02	-1.007085e+01	0.0	2.310870e+02	-1.603329e+01	0.0	2.293328e+02	-2.384519e+01	0.0	2.281093e+02	-2.680250e+01	0.0	2.256241e+02	-3.152561e+01	0.0	2.214952e+02	-3.448842e+01	0.0	2.183131e+02	-3.572771e+01	0.0	2.141117e+02	-3.732628e+01	0.0	2.103728e+02	-3.726061e+01	0.0	2.071465e+02	-3.734360e+01	0.0	2.039110e+02	-3.720574e+01	0.0	2.008974e+02	-3.708679e+01	0.0	1.975953e+02	-3.701643e+01	0.0	1.943818e+02	-3.673824e+01	0.0	1.908562e+02	-3.649967e+01	0.0	1.873764e+02	-3.620437e+01	0.0	1.834149e+02	-3.580891e+01	0.0	1.782818e+02	-3.518932e+01	0.0	1.729697e+02	-3.439640e+01	0.0	1.612473e+02	-3.321430e+01	0.0	1.673314e+02	-6.696560e+00	0.0	2.300147e+02	-1.246724e+01	0.0	2.170587e+02	-6.940952e+00	0.0	2.170456e+02	-5.031102e+00	0.0	2.167149e+02	-3.516631e+00	0.0	2.156898e+02	-1.808756e+00	0.0	2.144850e+02	-2.835990e-01	0.0	2.136016e+02	1.217557e+00	0.0	2.123805e+02	2.485040e+00	0.0	2.110881e+02	4.162497e+00	0.0	2.100205e+02	5.529624e+00	0.0	2.085148e+02	7.043075e+00	0.0	2.068664e+02	8.823785e+00	0.0	2.046462e+02	1.040647e+01	0.0	2.024364e+02	1.408911e+01	0.0	2.002486e+02	1.600822e+01	0.0	1.971236e+02	2.158852e+01	0.0	1.969101e+02	2.800151e+01	0.0	1.966928e+02	3.251747e+01	0.0	1.965130e+02	4.237002e+01	0.0	2.001230e+02	4.846057e+01	0.0	2.021159e+02	5.869245e+01	0.0	2.100889e+02	7.120931e+01	0.0	2.244057e+02	7.559372e+01	0.0	2.361580e+02	7.948323e+01	0.0	2.517626e+02	8.071179e+01	0.0	2.683410e+02	7.211668e+01	0.0	2.778504e+02	6.598810e+01	0.0	2.941776e+02	4.494927e+01	0.0	2.972480e+02	2.262517e+01	0.0	2.907207e+02	1.350229e+01	0.0	2.865449e+02	-5.424993e-01	0.0	2.749036e+02	-5.296775e+00	0.0	2.651709e+02	-4.664355e+00	0.0	2.564636e+02	-4.343790e+00	0.0	2.460779e+02	3.000598e+00	0.0	2.405648e+02	1.340152e+01	0.0	2.383502e+02	1.789215e+01	0.0	2.342190e+02	3.019395e+01	0.0	2.388221e+02	4.198321e+01	0.0	2.474320e+02	4.593522e+01	0.0	2.531899e+02	5.170303e+01	0.0	2.624309e+02	5.535038e+01	0.0	2.740523e+02	5.237284e+01	0.0	2.819244e+02	4.928859e+01	0.0	2.890972e+02	4.301067e+01	0.0	2.952580e+02	2.964032e+01	0.0	2.933019e+02	2.273157e+01	0.0	2.945496e+02	1.099950e+01	0.0	2.902886e+02	7.958859e-01	0.0	2.837647e+02	-1.467696e+00	0.0	2.782163e+02	-5.910522e+00	0.0	2.714466e+02	-7.336514e+00	0.0	2.645807e+02	-5.279914e+00	0.0	2.599641e+02	-3.865856e+00	0.0	2.541360e+02	-1.698482e-01	0.0	2.507090e+02	4.756620e+00	0.0	2.478384e+02	7.254550e+00	0.0	2.439159e+02	1.304854e+01	0.0	2.430190e+02	1.747745e+01	0.0	2.424216e+02	2.229189e+01	0.0	2.428748e+02	2.937796e+01	0.0	2.456748e+02	3.268260e+01	0.0	2.469953e+02	3.922767e+01	0.0	2.534882e+02	4.548966e+01	0.0	2.574306e+02	4.654851e+01	0.0	2.591913e+02	4.477929e+01	0.0	2.676223e+02	4.571377e+01	0.0	2.748058e+02	3.363981e+01	0.0	2.791521e+02	2.710018e+01	0.0	2.902485e+02	1.332544e+01	0.0	3.109377e+02	-1.018222e+01	0.0	3.129394e+02	-2.052888e+01	0.0	3.252499e+02	-5.000966e+01	0.0	3.267330e+02	-7.397611e+01	0.0	3.207154e+02	-8.097731e+01	0.0	3.159719e+02	-9.917721e+01	0.0	3.066771e+02	-1.044477e+02	0.0	2.980844e+02	-1.089393e+02	0.0	2.881298e+02	-1.139764e+02	0.0	2.780760e+02	-1.112955e+02	0.0	2.704572e+02	-1.096034e+02	0.0	2.630820e+02	-1.077375e+02	0.0	2.557981e+02	-1.046398e+02	0.0	2.490721e+02	-1.017881e+02	0.0	2.424173e+02	-9.894723e+01	0.0	2.359723e+02	-9.525089e+01	0.0	2.299028e+02	-9.179033e+01	0.0	2.236670e+02	-8.777109e+01	0.0	2.182810e+02	-8.361169e+01	0.0	2.126228e+02	-8.103952e+01	0.0	2.065523e+02	-7.877748e+01	0.0	1.986910e+02	-7.992582e+01	0.0	1.861525e+02	-8.061376e+01	0.0	1.680177e+02	-8.410853e+01	0.0	1.382113e+02	-8.261308e+01	0.0	9.901512e+01	-6.729851e+01	0.0	5.174180e+01	-3.983843e+01	0.0	-2.279783e+01	2.141080e+01	0.0	
SCALARS Energy double 1
LOOKUP_TABLE default
3.386329e+05	2.569526e+05	2.588214e+05	2.440602e+05	2.363221e+05	2.277555e+05	2.256152e+05	2.207046e+05	2.184855e+05	2.137653e+05	2.111274e+05	2.070406e+05	2.049265e+05	2.009705e+05	1.960587e+05	1.897734e+05	1.807542e+05	1.743533e+05	1.754851e+05	1.988926e+05	2.549878e+05	2.729643e+05	2.758692e+05	2.804086e+05	2.822902e+05	2.830717e+05	2.855520e+05	2.824363e+05	2.816603e+05	2.785003e+05	2.691799e+05	2.616439e+05	2.540887e+05	2.406083e+05	2.266098e+05	2.183094e+05	1.985763e+05	1.812855e+05	1.741099e+05	1.643749e+05	1.608791e+05	1.609344e+05	1.615246e+05	1.685212e+05	1.790396e+05	1.847668e+05	2.025272e+05	2.323316e+05	2.485018e+05	2.518279e+05	2.459818e+05	2.367121e+05	2.290548e+05	2.180183e+05	2.058562e+05	1.997854e+05	1.872706e+05	1.779415e+05	1.692353e+05	1.567022e+05	1.517763e+05	1.478729e+05	1.705029e+05	2.383696e+05	2.603668e+05	2.650727e+05	2.703248e+05	2.741646e+05	2.777885e+05	2.817659e+05	2.826123e+05	2.845548e+05	2.854892e+05	2.829093e+05	2.826396e+05	2.794604e+05	2.759180e+05	2.730996e+05	2.681820e+05	2.662050e+05	2.655302e+05	2.644042e+05	2.665596e+05	2.668786e+05	2.682516e+05	2.701788e+05	2.712142e+05	2.730006e+05	2.741937e+05	2.752888e+05	2.764408e+05	2.774147e+05	2.785432e+05	2.795355e+05	2.806557e+05	2.818368e+05	2.829387e+05	2.849692e+05	2.857688e+05	2.870594e+05	3.074246e+05	3.003145e+05	3.013171e+05	3.019203e+05	3.021658e+05	3.024932e+05	3.028175e+05	3.033005e+05	3.035436e+05	3.040180e+05	3.044818e+05	3.048416e+05	3.059123e+05	3.057121e+05	3.071432e+05	3.074514e+05	3.068745e+05	3.080378e+05	3.057286e+05	3.058976e+05	3.038220e+05	2.980193e+05	2.941417e+05	2.871579e+05	2.778815e+05	2.715700e+05	2.572348e+05	2.539702e+05	2.594622e+05	2.616062e+05	2.704984e+05	2.777541e+05	2.827393e+05	2.893340e+05	2.931172e+05	2.928007e+05	2.963897e+05	2.950513e+05	2.908224e+05	2.887609e+05	2.838678e+05	2.767042e+05	2.717127e+05	2.641310e+05	2.563254e+05	2.555302e+05	2.520075e+05	2.546736e+05	2.607818e+05	2.641824e+05	2.695075e+05	2.746476e+05	2.775064e+05	2.811841e+05	2.833551e+05	2.840696e+05	2.862239e+05	2.859162e+05	2.860711e+05	2.861411e+05	2.835623e+05	2.831348e+05	2.798632e+05	2.759859e+05	2.711994e+05	2.444383e+05	1.822269e+05	1.603713e+05	1.591053e+05	1.690655e+05	1.896776e+05	1.961154e+05	2.178838e+05	2.405595e+05	2.489625e+05	2.648284e+05	2.742086e+05	2.821521e+05	2.924705e+05	2.985624e+05	3.038031e+05	3.085695e+05	3.122456e+05	3.155360e+05	3.188123e+05	3.214975e+05	3.241198e+05	3.264744e+05	3.281148e+05	3.300906e+05	3.310207e+05	3.332816e+05	3.348431e+05	3.382927e+05	3.442198e+05	3.496485e+05	3.519491e+05	3.660405e+05	
SCALARS Pressure double 1
LOOKUP_TABLE default
1.294747e+05	9.186654e+04	9.082935e+04	8.255646e+04	7.721328e+04	7.269115e+04	7.084964e+04	6.842542e+04	6.694827e+04	6.466754e+04	6.302757e+04	6.115637e+04	6.008053e+04	5.816690e+04	5.589973e+04	5.294467e+04	4.909957e+04	4.628087e+04	4.743221e+04	6.012008e+04	8.791077e+04	9.652684e+04	9.856471e+04	1.011025e+05	1.022108e+05	1.028669e+05	1.038037e+05	1.022447e+05	1.015896e+05	9.925623e+04	9.413646e+04	8.988905e+04	8.539133e+04	7.821046e+04	7.132564e+04	6.654443e+04	5.744750e+04	5.019758e+04	4.676497e+04	4.283144e+04	4.138263e+04	4.125987e+04	4.147437e+04	4.424106e+04	4.835384e+04	5.089653e+04	5.882843e+04	7.307679e+04	8.117022e+04	8.274337e+04	7.971739e+04	7.517914e+04	7.127296e+04	6.578776e+04	6.032497e+04	5.728057e+04	5.197634e+04	4.790944e+04	4.418754e+04	3.950867e+04	3.719357e+04	3.719223e+04	5.198791e+04	8.438394e+04	9.489702e+04	9.778597e+04	1.007957e+05	1.031653e+05	1.054823e+05	1.076232e+05	1.083555e+05	1.094683e+05	1.097122e+05	1.083610e+05	1.078114e+05	1.058786e+05	1.037484e+05	1.017201e+05	9.896251e+04	9.778341e+04	9.723046e+04	9.682538e+04	9.783341e+04	9.811730e+04	9.899226e+04	1.000453e+05	1.007750e+05	1.018055e+05	1.025366e+05	1.032232e+05	1.039136e+05	1.045411e+05	1.052254e+05	1.058653e+05	1.065509e+05	1.072851e+05	1.080470e+05	1.091965e+05	1.101507e+05	1.105408e+05	1.153488e+05	1.132004e+05	1.136295e+05	1.139082e+05	1.140793e+05	1.142951e+05	1.144879e+05	1.147681e+05	1.149498e+05	1.152141e+05	1.154994e+05	1.157472e+05	1.163267e+05	1.163607e+05	1.170810e+05	1.173598e+05	1.170842e+05	1.175443e+05	1.164794e+05	1.162608e+05	1.151084e+05	1.119189e+05	1.092156e+05	1.052558e+05	9.991829e+04	9.586908e+04	8.857349e+04	8.575928e+04	8.826653e+04	9.001564e+04	9.454140e+04	9.891452e+04	1.019946e+05	1.056185e+05	1.080807e+05	1.083329e+05	1.100201e+05	1.096529e+05	1.073625e+05	1.057567e+05	1.030677e+05	9.905761e+04	9.582380e+04	9.167365e+04	8.744075e+04	8.658324e+04	8.522019e+04	8.640231e+04	8.971385e+04	9.194317e+04	9.489933e+04	9.783878e+04	9.973021e+04	1.017552e+05	1.031967e+05	1.037839e+05	1.049466e+05	1.051011e+05	1.052162e+05	1.052622e+05	1.040490e+05	1.036100e+05	1.019998e+05	9.967358e+04	9.719967e+04	8.502423e+04	5.393866e+04	4.104032e+04	3.960548e+04	4.351181e+04	5.150373e+04	5.462880e+04	6.381132e+04	7.460140e+04	7.934861e+04	8.700317e+04	9.229396e+04	9.671827e+04	1.022176e+05	1.059585e+05	1.089945e+05	1.117524e+05	1.140176e+05	1.160281e+05	1.179948e+05	1.196866e+05	1.212938e+05	1.227870e+05	1.239064e+05	1.251300e+05	1.259141e+05	1.272654e+05	1.285449e+05	1.307466e+05	1.343986e+05	1.380749e+05	1.402536e+05	1.463003e+05	
SCALARS Temperature double 1
LOOKUP_TABLE default
2.925355e+02	2.785457e+02	2.747459e+02	2.673327e+02	2.604623e+02	2.558902e+02	2.527574e+02	2.503016e+02	2.480695e+02	2.456435e+02	2.431497e+02	2.411721e+02	2.397815e+02	2.374024e+02	2.346498e+02	2.307063e+02	2.259256e+02	2.218544e+02	2.250447e+02	2.454923e+02	2.711539e+02	2.763016e+02	2.784106e+02	2.802812e+02	2.811503e+02	2.819012e+02	2.819718e+02	2.811120e+02	2.803538e+02	2.778978e+02	2.740390e+02	2.704458e+02	2.660351e+02	2.594540e+02	2.531995e+02	2.470751e+02	2.373177e+02	2.293522e+02	2.239308e+02	2.186246e+02	2.163932e+02	2.158234e+02	2.160854e+02	2.199229e+02	2.249016e+02	2.284208e+02	2.380646e+02	2.530684e+02	2.604079e+02	2.615676e+02	2.588664e+02	2.549374e+02	2.509971e+02	2.451675e+02	2.396951e+02	2.356688e+02	2.297729e+02	2.243565e+02	2.189769e+02	2.129653e+02	2.081683e+02	2.125529e+02	2.471325e+02	2.765211e+02	2.825147e+02	2.850221e+02	2.872542e+02	2.891690e+02	2.910806e+02	2.923221e+02	2.931226e+02	2.938367e+02	2.936135e+02	2.929108e+02	2.920368e+02	2.906060e+02	2.890139e+02	2.870277e+02	2.850841e+02	2.841299e+02	2.834794e+02	2.834949e+02	2.839596e+02	2.843132e+02	2.850927e+02	2.858060e+02	2.865246e+02	2.872790e+02	2.878642e+02	2.884278e+02	2.889504e+02	2.894765e+02	2.899950e+02	2.905229e+02	2.910406e+02	2.916037e+02	2.922747e+02	2.930011e+02	2.942522e+02	2.940461e+02	2.885657e+02	2.895317e+02	2.896265e+02	2.897212e+02	2.898659e+02	2.900357e+02	2.901650e+02	2.903441e+02	2.905086e+02	2.906636e+02	2.908636e+02	2.910665e+02	2.913805e+02	2.915804e+02	2.918975e+02	2.921882e+02	2.920883e+02	2.921176e+02	2.917844e+02	2.912710e+02	2.906061e+02	2.887516e+02	2.863744e+02	2.836882e+02	2.797194e+02	2.759514e+02	2.708992e+02	2.669853e+02	2.684695e+02	2.707581e+02	2.739184e+02	2.777410e+02	2.803860e+02	2.828359e+02	2.849238e+02	2.856345e+02	2.863170e+02	2.865641e+02	2.851722e+02	2.835182e+02	2.817238e+02	2.788140e+02	2.757480e+02	2.725036e+02	2.690235e+02	2.676721e+02	2.672752e+02	2.679253e+02	2.707174e+02	2.730585e+02	2.754330e+02	2.778050e+02	2.796097e+02	2.810387e+02	2.823564e+02	2.830100e+02	2.837538e+02	2.842828e+02	2.843979e+02	2.844379e+02	2.839100e+02	2.833456e+02	2.825082e+02	2.806242e+02	2.790523e+02	2.729456e+02	2.415589e+02	2.155091e+02	2.108013e+02	2.164859e+02	2.258574e+02	2.304253e+02	2.395840e+02	2.503537e+02	2.556190e+02	2.615409e+02	2.663396e+02	2.699959e+02	2.739119e+02	2.770348e+02	2.792588e+02	2.811992e+02	2.829004e+02	2.843526e+02	2.857015e+02	2.869227e+02	2.880146e+02	2.890632e+02	2.899173e+02	2.907226e+02	2.914469e+02	2.922643e+02	2.933928e+02	2.948226e+02	2.969920e+02	2.994199e+02	3.013765e+02	3.020130e+02	
SCALARS Mach double 1
LOOKUP_TABLE default
4.060925e-01	6.513943e-01	7.066366e-01	8.073613e-01	8.949383e-01	9.510848e-01	9.888109e-01	1.018035e+00	1.044371e+00	1.072783e+00	1.101793e+00	1.124678e+00	1.140717e+00	1.168067e+00	1.199600e+00	1.244630e+00	1.299109e+00	1.345515e+00	1.309146e+00	1.074547e+00	7.564292e-01	6.843759e-01	6.534122e-01	6.250823e-01	6.116070e-01	5.997910e-01	5.986705e-01	6.122058e-01	6.239641e-01	6.610300e-01	7.166041e-01	7.660124e-01	8.242564e-01	9.074464e-01	9.835183e-01	1.056042e+00	1.169039e+00	1.260067e+00	1.321840e+00	1.382398e+00	1.407937e+00	1.414469e+00	1.411465e+00	1.367562e+00	1.310777e+00	1.270682e+00	1.160465e+00	9.850893e-01	8.956158e-01	8.811365e-01	9.147002e-01	9.626156e-01	1.009787e+00	1.078335e+00	1.141712e+00	1.187939e+00	1.255273e+00	1.316989e+00	1.378370e+00	1.447299e+00	1.502719e+00	1.452047e+00	1.055370e+00	6.811980e-01	5.900085e-01	5.486910e-01	5.097734e-01	4.743832e-01	4.367225e-01	4.107083e-01	3.931472e-01	3.768809e-01	3.820317e-01	3.978598e-01	4.168089e-01	4.463222e-01	4.773298e-01	5.138285e-01	5.476386e-01	5.636546e-01	5.743778e-01	5.741236e-01	5.664769e-01	5.606062e-01	5.474932e-01	5.352773e-01	5.227456e-01	5.093292e-01	4.987219e-01	4.883308e-01	4.785323e-01	4.684972e-01	4.584294e-01	4.479851e-01	4.375368e-01	4.259275e-01	4.117276e-01	3.958570e-01	3.671210e-01	3.719896e-01	4.857612e-01	4.674337e-01	4.656039e-01	4.637690e-01	4.609538e-01	4.576320e-01	4.550878e-01	4.515445e-01	4.482706e-01	4.451665e-01	4.411337e-01	4.370097e-01	4.305624e-01	4.264141e-01	4.197613e-01	4.135809e-01	4.157143e-01	4.150894e-01	4.221443e-01	4.328198e-01	4.463201e-01	4.822785e-01	5.253846e-01	5.709523e-01	6.336830e-01	6.894279e-01	7.598833e-01	8.119033e-01	7.924019e-01	7.617939e-01	7.182951e-01	6.633486e-01	6.234686e-01	5.848387e-01	5.503540e-01	5.382335e-01	5.263907e-01	5.220509e-01	5.461417e-01	5.737425e-01	6.025977e-01	6.473756e-01	6.923508e-01	7.379601e-01	7.850547e-01	8.029113e-01	8.081146e-01	7.995827e-01	7.623442e-01	7.302866e-01	6.968611e-01	6.624036e-01	6.353527e-01	6.133503e-01	5.925431e-01	5.820222e-01	5.698726e-01	5.611120e-01	5.591931e-01	5.585238e-01	5.672963e-01	5.765639e-01	5.901129e-01	6.197889e-01	6.437914e-01	7.318518e-01	1.120211e+00	1.418073e+00	1.472245e+00	1.406875e+00	1.299886e+00	1.247834e+00	1.142992e+00	1.017418e+00	9.543725e-01	8.814712e-01	8.203091e-01	7.720638e-01	7.183857e-01	6.737202e-01	6.406745e-01	6.108425e-01	5.837967e-01	5.599494e-01	5.370803e-01	5.156996e-01	4.959656e-01	4.763960e-01	4.599491e-01	4.439792e-01	4.291867e-01	4.119505e-01	3.870640e-01	3.533326e-01	2.956493e-01	2.148405e-01	1.157407e-01	5.319787e-02	
SCALARS Pressure_Coefficient double 1
LOOKUP_TABLE default