# vtk DataFile Version 3.0
vtk output
ASCII
DATASET UNSTRUCTURED_GRID
POINTS 11739 double
1.868554e-04	9.823874e-04	0.0	3.915360e-04	2.058491e-03	0.0	6.385526e-04	3.228572e-03	0.0	1.293340e-03	4.367380e-03	0.0	2.010169e-03	5.614092e-03	0.0	2.947029e-03	6.864050e-03	0.0	4.143577e-03	8.102820e-03	0.0	5.459064e-03	9.450375e-03	0.0	7.122842e-03	1.066559e-02	0.0	8.941692e-03	1.199406e-02	0.0	1.103597e-02	1.327966e-02	0.0	1.338228e-02	1.459267e-02	0.0	1.598703e-02	1.594133e-02	0.0	1.890777e-02	1.725847e-02	0.0	2.210849e-02	1.865945e-02	0.0	2.567285e-02	2.000547e-02	0.0	2.956164e-02	2.145646e-02	0.0	3.385972e-02	2.285362e-02	0.0	3.854108e-02	2.435653e-02	0.0	4.368040e-02	2.582572e-02	0.0	4.927227e-02	2.738496e-02	0.0	5.537690e-02	2.894072e-02	0.0	6.201183e-02	3.055473e-02	0.0	6.921960e-02	3.220518e-02	0.0	7.704183e-02	3.386574e-02	0.0	8.550455e-02	3.559254e-02	0.0	9.466068e-02	3.731025e-02	0.0	1.045394e-01	3.905829e-02	0.0	1.151767e-01	4.084582e-02	0.0	1.266170e-01	4.262014e-02	0.0	1.388917e-01	4.439176e-02	0.0	1.520305e-01	4.617073e-02	0.0	1.660637e-01	4.794171e-02	0.0	1.810190e-01	4.966807e-02	0.0	1.969151e-01	5.134087e-02	0.0	2.137633e-01	5.296617e-02	0.0	2.315701e-01	5.452771e-02	0.0	2.503342e-01	5.600817e-02	0.0	2.700451e-01	5.738966e-02	0.0	2.906823e-01	5.865554e-02	0.0	3.122151e-01	5.978917e-02	0.0	3.346022e-01	6.076945e-02	0.0	3.577909e-01	6.157587e-02	0.0	3.817177e-01	6.219047e-02	0.0	4.063079e-01	6.259658e-02	0.0	4.314771e-01	6.277801e-02	0.0	4.571312e-01	6.271279e-02	0.0	4.831679e-01	6.237272e-02	0.0	5.094778e-01	6.172961e-02	0.0	5.359460e-01	6.075975e-02	0.0	5.624543e-01	5.944931e-02	0.0	5.888838e-01	5.780079e-02	0.0	6.151186e-01	5.584264e-02	0.0	6.410476e-01	5.361910e-02	0.0	6.665658e-01	5.117565e-02	0.0	6.915745e-01	4.854862e-02	0.0	7.159822e-01	4.576233e-02	0.0	7.397095e-01	4.286300e-02	0.0	7.626857e-01	3.988169e-02	0.0	7.848515e-01	3.685033e-02	0.0	8.061581e-01	3.379700e-02	0.0	8.265679e-01	3.074934e-02	0.0	8.460540e-01	2.773240e-02	0.0	8.645993e-01	2.476746e-02	0.0	8.821956e-01	2.186922e-02	0.0	8.988433e-01	1.905044e-02	0.0	9.145503e-01	1.631983e-02	0.0	9.293310e-01	1.368381e-02	0.0	9.432053e-01	1.114422e-02	0.0	9.561999e-01	8.710579e-03	0.0	9.683439e-01	6.384289e-03	0.0	9.796691e-01	4.161210e-03	0.0	9.902099e-01	2.038145e-03	0.0	0.000000e+00	0.000000e+00	0.0	1.000000e+00	0.000000e+00	0.0	9.900132e-01	5.126793e-04	0.0	9.792687e-01	9.086466e-04	0.0	9.677311e-01	1.146431e-03	0.0	9.553684e-01	1.202088e-03	0.0	9.421516e-01	1.050696e-03	0.0	9.280558e-01	6.609431e-04	0.0	9.130605e-01	1.372597e-05	0.0	8.971495e-01	-8.926563e-04	0.0	8.803130e-01	-2.069856e-03	0.0	8.625473e-01	-3.524749e-03	0.0	8.438564e-01	-5.259986e-03	0.0	8.242524e-01	-7.275588e-03	0.0	8.037565e-01	-9.567165e-03	0.0	7.823991e-01	-1.212752e-02	0.0	7.602213e-01	-1.494921e-02	0.0	7.372740e-01	-1.801980e-02	0.0	7.136169e-01	-2.131202e-02	0.0	6.893183e-01	-2.478834e-02	0.0	6.644540e-01	-2.839511e-02	0.0	6.391087e-01	-3.208042e-02	0.0	6.133743e-01	-3.578743e-02	0.0	5.873493e-01	-3.945724e-02	0.0	5.611365e-01	-4.302623e-02	0.0	5.348415e-01	-4.642315e-02	0.0	5.085711e-01	-4.956944e-02	0.0	4.824323e-01	-5.237892e-02	0.0	4.565321e-01	-5.476843e-02	0.0	4.309777e-01	-5.667197e-02	0.0	4.058744e-01	-5.804794e-02	0.0	3.813234e-01	-5.888588e-02	0.0	3.574185e-01	-5.920764e-02	0.0	3.342429e-01	-5.906792e-02	0.0	3.118664e-01	-5.854125e-02	0.0	2.903444e-01	-5.771457e-02	0.0	2.697185e-01	-5.666536e-02	0.0	2.500189e-01	-5.545157e-02	0.0	2.312653e-01	-5.411099e-02	0.0	2.134678e-01	-5.267151e-02	0.0	1.966279e-01	-5.115483e-02	0.0	1.807389e-01	-4.957929e-02	0.0	1.657891e-01	-4.794448e-02	0.0	1.517602e-01	-4.625659e-02	0.0	1.386245e-01	-4.455425e-02	0.0	1.263523e-01	-4.285170e-02	0.0	1.149134e-01	-4.114110e-02	0.0	1.042777e-01	-3.940408e-02	0.0	9.440055e-02	-3.769926e-02	0.0	8.524500e-02	-3.602248e-02	0.0	7.678466e-02	-3.432004e-02	0.0	6.896561e-02	-3.267589e-02	0.0	6.176132e-02	-3.103576e-02	0.0	5.513350e-02	-2.941432e-02	0.0	4.903557e-02	-2.785032e-02	0.0	4.345678e-02	-2.625926e-02	0.0	3.832874e-02	-2.476339e-02	0.0	3.366659e-02	-2.321108e-02	0.0	2.938429e-02	-2.177443e-02	0.0	2.551844e-02	-2.026911e-02	0.0	2.197260e-02	-1.888035e-02	0.0	1.879573e-02	-1.742967e-02	0.0	1.589415e-02	-1.607418e-02	0.0	1.331062e-02	-1.468736e-02	0.0	1.098029e-02	-1.334819e-02	0.0	8.903266e-03	-1.203627e-02	0.0	7.095700e-03	-1.069363e-02	0.0	5.442187e-03	-9.465423e-03	0.0	4.134843e-03	-8.110148e-03	0.0	2.943501e-03	-6.866853e-03	0.0	2.010037e-03	-5.614320e-03	0.0	1.294503e-03	-4.367088e-03	0.0	6.408772e-04	-3.227766e-03	0.0	3.921270e-04	-2.058341e-03	0.0	1.871407e-04	-9.823331e-04	0.0	1.010000e+00	0.000000e+00	0.0	1.020077e+00	0.000000e+00	0.0	1.030309e+00	0.000000e+00	0.0	1.040774e+00	0.000000e+00	0.0	1.051554e+00	0.000000e+00	0.0	1.062732e+00	0.000000e+00	0.0	1.074392e+00	0.000000e+00	0.0	1.086627e+00	0.000000e+00	0.0	1.099529e+00	0.000000e+00	0.0	1.113198e+00	0.000000e+00	0.0	1.127740e+00	0.000000e+00	0.0	1.143267e+00	0.000000e+00	0.0	1.159898e+00	0.000000e+00	0.0	1.177761e+00	0.000000e+00	0.0	1.196995e+00	0.000000e+00	0.0	1.217748e+00	0.000000e+00	0.0	1.240179e+00	0.000000e+00	0.0	1.264462e+00	0.000000e+00	0.0	1.290783e+00	0.000000e+00	0.0	1.319346e+00	0.000000e+00	0.0	1.350371e+00	0.000000e+00	0.0	1.384097e+00	0.000000e+00	0.0	1.420783e+00	0.000000e+00	0.0	1.460714e+00	0.000000e+00	0.0	1.504195e+00	0.000000e+00	0.0	1.551564e+00	0.000000e+00	0.0	1.603184e+00	0.000000e+00	0.0	1.659455e+00	0.000000e+00	0.0	1.720808e+00	0.000000e+00	0.0	1.787719e+00	0.000000e+00	0.0	1.860702e+00	0.000000e+00	0.0	1.940319e+00	0.000000e+00	0.0	2.027186e+00	0.000000e+00	0.0	2.121971e+00	0.000000e+00	0.0	2.225404e+00	0.000000e+00	0.0	2.338284e+00	0.000000e+00	0.0	2.461481e+00	0.000000e+00	0.0	2.595944e+00	0.000000e+00	0.0	2.742710e+00	0.000000e+00	0.0	2.902910e+00	0.000000e+00	0.0	3.077779e+00	0.000000e+00	0.0	3.268665e+00	0.000000e+00	0.0	3.477040e+00	0.000000e+00	0.0	3.704509e+00	0.000000e+00	0.0	3.952828e+00	0.000000e+00	0.0	4.223909e+00	0.000000e+00	0.0	4.519842e+00	0.000000e+00	0.0	4.842909e+00	0.000000e+00	0.0	5.195600e+00	0.000000e+00	0.0	5.580634e+00	0.000000e+00	0.0	6.000979e+00	0.000000e+00	0.0	6.459876e+00	0.000000e+00	0.0	6.960862e+00	0.000000e+00	0.0	7.507798e+00	0.000000e+00	0.0	8.104902e+00	0.000000e+00	0.0	8.756776e+00	0.000000e+00	0.0	9.468445e+00	0.000000e+00	0.0	1.024540e+01	0.000000e+00	0.0	1.109362e+01	0.000000e+00	0.0	1.201965e+01	0.000000e+00	0.0	1.303063e+01	0.000000e+00	0.0	1.413435e+01	0.000000e+00	0.0	1.533932e+01	0.000000e+00	0.0	1.665483e+01	0.000000e+00	0.0	1.809101e+01	0.000000e+00	0.0	1.965895e+01	0.000000e+00	0.0	2.137073e+01	0.000000e+00	0.0	2.323954e+01	0.000000e+00	0.0	2.527979e+01	0.000000e+00	0.0	2.750721e+01	0.000000e+00	0.0	2.993896e+01	0.000000e+00	0.0	3.259380e+01	0.000000e+00	0.0	3.549219e+01	0.000000e+00	0.0	3.865648e+01	0.000000e+00	0.0	4.211104e+01	0.000000e+00	0.0	4.588253e+01	0.000000e+00	0.0	5.000000e+01	0.000000e+00	0.0	5.000000e+01	1.240000e-05	0.0	5.000000e+01	2.675715e-05	0.0	5.000000e+01	4.533750e-05	0.0	5.000000e+01	7.107367e-05	0.0	5.000000e+01	1.080277e-04	0.0	5.000000e+01	1.620323e-04	0.0	5.000000e+01	2.416112e-04	0.0	5.000000e+01	3.593246e-04	0.0	5.000000e+01	5.337519e-04	0.0	5.000000e+01	7.924237e-04	0.0	5.000000e+01	1.176167e-03	0.0	5.000000e+01	1.745551e-03	0.0	5.000000e+01	2.590442e-03	0.0	5.000000e+01	3.844195e-03	0.0	5.000000e+01	5.704695e-03	0.0	5.000000e+01	8.465593e-03	0.0	5.000000e+01	1.256265e-02	0.0	5.000000e+01	1.864254e-02	0.0	5.000000e+01	2.766485e-02	0.0	5.000000e+01	4.105364e-02	0.0	5.000000e+01	6.092211e-02	0.0	5.000000e+01	9.040620e-02	0.0	5.000000e+01	1.341595e-01	0.0	5.000000e+01	1.990878e-01	0.0	5.000000e+01	2.954391e-01	0.0	5.000000e+01	4.384208e-01	0.0	5.000000e+01	6.506005e-01	0.0	5.000000e+01	9.654675e-01	0.0	5.000000e+01	1.432719e+00	0.0	5.000000e+01	2.126102e+00	0.0	5.000000e+01	3.155058e+00	0.0	5.000000e+01	4.681991e+00	0.0	5.000000e+01	6.947904e+00	0.0	5.000000e+01	1.031044e+01	0.0	5.000000e+01	1.530031e+01	0.0	5.000000e+01	2.270511e+01	0.0	5.000000e+01	3.369355e+01	0.0	5.000000e+01	5.000000e+01	0.0	5.000000e+01	-1.240000e-05	0.0	5.000000e+01	-2.675715e-05	0.0	5.000000e+01	-4.533750e-05	0.0	5.000000e+01	-7.107367e-05	0.0	5.000000e+01	-1.080277e-04	0.0	5.000000e+01	-1.620323e-04	0.0	5.000000e+01	-2.416112e-04	0.0	5.000000e+01	-3.593246e-04	0.0	5.000000e+01	-5.337519e-04	0.0	5.000000e+01	-7.924237e-04	0.0	5.000000e+01	-1.176167e-03	0.0	5.000000e+01	-1.745551e-03	0.0	5.000000e+01	-2.590442e-03	0.0	5.000000e+01	-3.844195e-03	0.0	5.000000e+01	-5.704695e-03	0.0	5.000000e+01	-8.465593e-03	0.0	5.000000e+01	-1.256265e-02	0.0	5.000000e+01	-1.864254e-02	0.0	5.000000e+01	-2.766485e-02	0.0	5.000000e+01	-4.105364e-02	0.0	5.000000e+01	-6.092211e-02	0.0	5.000000e+01	-9.040620e-02	0.0	5.000000e+01	-1.341595e-01	0.0	5.000000e+01	-1.990878e-01	0.0	5.000000e+01	-2.954391e-01	0.0	5.000000e+01	-4.384208e-01	0.0	5.000000e+01	-6.506005e-01	0.0	5.000000e+01	-9.654675e-01	0.0	5.000000e+01	-1.432719e+00	0.0	5.000000e+01	-2.126102e+00	0.0	5.000000e+01	-3.155058e+00	0.0	5.000000e+01	-4.681991e+00	0.0	5.000000e+01	-6.947904e+00	0.0	5.000000e+01	-1.031044e+01	0.0	5.000000e+01	-1.530031e+01	0.0	5.000000e+01	-2.270511e+01	0.0	5.000000e+01	-3.369355e+01	0.0	5.000000e+01	-5.000000e+01	0.0	1.000000e+00	1.240000e-05	0.0	1.000000e+00	2.675715e-05	0.0	1.000000e+00	4.533750e-05	0.0	1.000000e+00	7.107367e-05	0.0	1.000000e+00	1.080277e-04	0.0	1.000000e+00	1.620323e-04	0.0	1.000000e+00	2.416112e-04	0.0	1.000000e+00	3.593246e-04	0.0	1.000000e+00	5.337519e-04	0.0	1.000000e+00	7.924237e-04	0.0	1.000000e+00	1.176167e-03	0.0	1.000000e+00	1.745551e-03	0.0	1.000000e+00	2.590442e-03	0.0	1.000000e+00	3.844195e-03	0.0	1.000000e+00	5.704695e-03	0.0	1.000000e+00	8.465593e-03	0.0	1.000000e+00	1.256265e-02	0.0	1.000000e+00	1.864254e-02	0.0	1.000000e+00	2.766485e-02	0.0	1.000000e+00	4.105364e-02	0.0	1.000000e+00	6.092211e-02	0.0	1.000000e+00	9.040620e-02	0.0	1.000000e+00	1.341595e-01	0.0	1.000000e+00	1.990878e-01	0.0	1.000000e+00	2.954391e-01	0.0	1.000000e+00	4.384208e-01	
[...]
POINT_DATA 11739

SCALARS Density double 1
LOOKUP_TABLE default
5.020875e-01	5.036658e-01	4.546000e-01	4.268135e-01	4.225827e-01	3.876454e-01	3.761680e-01	3.528261e-01	3.370784e-01	3.360274e-01	3.248685e-01	3.220131e-01	3.144444e-01	3.113242e-01	3.072883e-01	3.050919e-01	3.034703e-01	3.022369e-01	3.022891e-01	3.018709e-01	3.028255e-01	3.027786e-01	3.041243e-01	3.040469e-01	3.049680e-01	3.052968e-01	3.050652e-01	3.061633e-01	3.062120e-01	3.056427e-01	3.058622e-01	3.061327e-01	3.055787e-01	3.045788e-01	3.039354e-01	3.034867e-01	3.028654e-01	3.020716e-01	3.011404e-01	3.001079e-01	2.989046e-01	2.975194e-01	2.959701e-01	2.943562e-01	2.925769e-01	2.906039e-01	2.881432e-01	2.856885e-01	2.830269e-01	2.796531e-01	2.722401e-01	2.688308e-01	2.919805e-01	3.809729e-01	4.212082e-01	4.157318e-01	4.072642e-01	4.085704e-01	4.134485e-01	4.173325e-01	4.205432e-01	4.240925e-01	4.279165e-01	4.317113e-01	4.354365e-01	4.391967e-01	4.429806e-01	4.468678e-01	4.508343e-01	4.551097e-01	4.584830e-01	4.606665e-01	4.577633e-01	5.270402e-01	4.620017e-01	4.832234e-01	4.962792e-01	4.998287e-01	4.998068e-01	4.997320e-01	4.992467e-01	4.984101e-01	4.972565e-01	4.958263e-01	4.941543e-01	4.922591e-01	4.901476e-01	4.878461e-01	4.853330e-01	4.825247e-01	4.793613e-01	4.758095e-01	4.719160e-01	4.677357e-01	4.632685e-01	4.585129e-01	4.534329e-01	4.480012e-01	4.422161e-01	4.362022e-01	4.302932e-01	4.249784e-01	4.208302e-01	4.183745e-01	4.179152e-01	4.193879e-01	4.223969e-01	4.263187e-01	4.305047e-01	4.345390e-01	4.382924e-01	4.418053e-01	4.450966e-01	4.480825e-01	4.509705e-01	4.542649e-01	4.577200e-01	4.607513e-01	4.635262e-01	4.670565e-01	4.707371e-01	4.734677e-01	4.771860e-01	4.809151e-01	4.842078e-01	4.886109e-01	4.919819e-01	4.966663e-01	5.005204e-01	5.054780e-01	5.100080e-01	5.152068e-01	5.205766e-01	5.259324e-01	5.323577e-01	5.376808e-01	5.453321e-01	5.502512e-01	5.590077e-01	5.634414e-01	5.706968e-01	5.770080e-01	5.802618e-01	5.826498e-01	5.816058e-01	5.763142e-01	5.607686e-01	5.572204e-01	4.787872e-01	4.765229e-01	4.741822e-01	4.726072e-01	4.711601e-01	4.699316e-01	4.688517e-01	4.678404e-01	4.668901e-01	4.659969e-01	4.651483e-01	4.643345e-01	4.635499e-01	4.627909e-01	4.620547e-01	4.613394e-01	4.606437e-01	4.599668e-01	4.593079e-01	4.586666e-01	4.580425e-01	4.574367e-01	4.568530e-01	4.562996e-01	4.557860e-01	4.553116e-01	4.548507e-01	4.543493e-01	4.537513e-01	4.530455e-01	4.522954e-01	4.516184e-01	4.511269e-01	4.508775e-01	4.508604e-01	4.510240e-01	4.513057e-01	4.516492e-01	4.520093e-01	4.523512e-01	4.526510e-01	4.528953e-01	4.530802e-01	4.532083e-01	4.532864e-01	4.533230e-01	4.533274e-01	4.533082e-01	4.532729e-01	4.532281e-01	4.531788e-01	4.531289e-01	4.530812e-01	4.530373e-01	4.529983e-01	4.529646e-01	4.529362e-01	4.529128e-01	4.528939e-01	4.528790e-01	4.528674e-01	4.528587e-01	4.528521e-01	4.528473e-01	4.528438e-01	4.528411e-01	4.528390e-01	4.528372e-01	4.528355e-01	4.528337e-01	4.528316e-01	4.528289e-01	4.528252e-01	4.528175e-01	4.528094e-01	4.527836e-01	4.527479e-01	4.527479e-01	4.527479e-01	4.527479e-01	4.527479e-01	4.527479e-01	4.527479e-01	4.527479e-01	4.527479e-01	4.527479e-01	4.527479e-01	4.527479e-01	4.527478e-01	4.527477e-01	4.527476e-01	4.527477e-01	4.527481e-01	4.527486e-01	4.527486e-01	4.527468e-01	4.527431e-01	4.527393e-01	4.527401e-01	4.527514e-01	4.527720e-01	4.527853e-01	4.527590e-01	4.526690e-01	4.525382e-01	4.524470e-01	4.524749e-01	4.526175e-01	4.527731e-01	4.528455e-01	4.528435e-01	4.528346e-01	4.528194e-01	4.528001e-01	4.526570e-01	4.527479e-01	4.527479e-01	4.527479e-01	4.527479e-01	4.527479e-01	4.527479e-01	4.527480e-01	4.527480e-01	4.527480e-01	4.527480e-01	4.527480e-01	4.527480e-01	4.527480e-01	4.527481e-01	4.527481e-01	4.527482e-01	4.527483e-01	4.527485e-01	4.527487e-01	4.527490e-01	4.527494e-01	4.527500e-01	4.527508e-01	4.527519e-01	4.527536e-01	4.527559e-01	4.527592e-01	4.527638e-01	4.527702e-01	4.527789e-01	4.527900e-01	4.528035e-01	4.528171e-01	4.528309e-01	4.528411e-01	4.528650e-01	4.529013e-01	4.530508e-01	4.701771e-01	4.722859e-01	4.783854e-01	4.802690e-01	4.831529e-01	4.840526e-01	4.852155e-01	4.854539e-01	4.857791e-01	4.857053e-01	4.856793e-01	4.854608e-01	4.851825e-01	4.846367e-01	4.837487e-01	4.823115e-01	4.802384e-01	4.775192e-01	4.742766e-01	4.706587e-01	4.667833e-01	4.627453e-01	4.585119e-01	4.540253e-01	4.492679e-01	4.440978e-01	4.394116e-01	4.371502e-01	4.380669e-01	4.409804e-01	4.442689e-01	4.470008e-01	4.489588e-01	4.502707e-01	4.511308e-01	4.516919e-01	4.520280e-01	4.522022e-01	4.668650e-01	4.650565e-01	4.679670e-01	4.685786e-01	4.712271e-01	4.735498e-01	4.770594e-01	4.807889e-01	4.850625e-01	4.890659e-01	4.923652e-01	4.941920e-01	4.944726e-01	4.936833e-01	4.927237e-01	4.920276e-01	4.914183e-01	4.905547e-01	4.893492e-01	4.877938e-01	4.858436e-01	4.834227e-01	4.804643e-01	4.769756e-01	4.730756e-01	4.692077e-01	4.659591e-01	4.635145e-01	4.616023e-01	4.599091e-01	4.583386e-01	4.569501e-01	4.558133e-01	4.549425e-01	4.543040e-01	4.538530e-01	4.535628e-01	4.533841e-01	4.522020e-01	4.522018e-01	4.522015e-01	4.522013e-01	4.522010e-01	4.522007e-01	4.522005e-01	4.522002e-01	4.521999e-01	4.521996e-01	4.521992e-01	4.521989e-01	4.521985e-01	4.521981e-01	4.521977e-01	4.521973e-01	4.521968e-01	4.521963e-01	4.521958e-01	4.521952e-01	4.521946e-01	4.521940e-01	4.521933e-01	4.521926e-01	4.521918e-01	4.521909e-01	4.521900e-01	4.521891e-01	4.521880e-01	4.521869e-01	4.521857e-01	4.521845e-01	4.521831e-01	4.521817e-01	4.521802e-01	4.521785e-01	4.521768e-01	4.521750e-01	4.521730e-01	4.521710e-01	4.521688e-01	4.521666e-01	4.521642e-01	4.521618e-01	4.521592e-01	4.521566e-01	4.521540e-01	4.521513e-01	4.521486e-01	4.521460e-01	4.521435e-01	4.521412e-01	4.521392e-01	4.521375e-01	4.521362e-01	4.521355e-01	4.521355e-01	4.521363e-01	4.521382e-01	4.521413e-01	4.521458e-01	4.521518e-01	4.521598e-01	4.521697e-01	4.521819e-01	4.521966e-01	4.522141e-01	4.522344e-01	4.522581e-01	4.522850e-01	4.523167e-01	4.523516e-01	4.523957e-01	4.524400e-01	4.525095e-01	4.525656e-01	4.533843e-01	4.533845e-01	4.533847e-01	4.533849e-01	4.533851e-01	4.533853e-01	4.533855e-01	4.533858e-01	4.533860e-01	4.533863e-01	4.533865e-01	4.533868e-01	4.533871e-01	4.533875e-01	4.533878e-01	4.533882e-01	4.533886e-01	4.533890e-01	4.533895e-01	4.533900e-01	4.533905e-01	4.533911e-01	4.533917e-01	4.533923e-01	4.533930e-01	4.533938e-01	4.533946e-01	4.533955e-01	4.533964e-01	4.533974e-01	4.533985e-01	4.533997e-01	4.534010e-01	4.534023e-01	4.534038e-01	4.534054e-01	4.534071e-01	4.534089e-01	4.534108e-01	4.534129e-01	4.534151e-01	4.534174e-01	4.534199e-01	4.534226e-01	4.534253e-01	4.534283e-01	4.534313e-01	4.534345e-01	4.534377e-01	4.534410e-01	4.534443e-01	4.534477e-01	4.534509e-01	4.534540e-01	4.534568e-01	4.534593e-01	4.534614e-01	4.534628e-01	4.534634e-01	4.534631e-01	4.534616e-01	4.534587e-01	4.534542e-01	4.534479e-01	4.534394e-01	4.534287e-01	4.534153e-01	4.533991e-01	4.533796e-01	4.533571e-01	4.533303e-01	4.533004e-01	4.532631e-01	4.532259e-01	4.531685e-01	4.531232e-01	4.522025e-01	4.522028e-01	4.522031e-01	4.522034e-01	4.522037e-01	4.522041e-01	4.522044e-01	4.522049e-01	4.522053e-01	4.522058e-01	4.522063e-01	4.522069e-01	4.522075e-01	4.522081e-01	4.522088e-01	4.522095e-01	4.522103e-01	4.522112e-01	4.522121e-01	4.522131e-01	4.522142e-01	4.522153e-01	4.522165e-01	4.522179e-01	4.522193e-01	4.522209e-01	4.522225e-01	4.522243e-01	4.522263e-01	4.522283e-01	4.522305e-01	4.522333e-01	4.522364e-01	4.522400e-01	4.522439e-01	4.522483e-01	4.522533e-01	4.522589e-01	4.522652e-01	4.522723e-01	4.522803e-01	4.522892e-01	4.522992e-01	4.523105e-01	4.523230e-01	4.523369e-01	4.523522e-01	4.523692e-01	4.523876e-01	4.524077e-01	4.524292e-01	4.524522e-01	4.524764e-01	4.525016e-01	4.525276e-01	4.525541e-01	4.525806e-01	4.526069e-01	4.526324e-01	4.526569e-01	4.526801e-01	4.527017e-01	4.527216e-01	4.527396e-01	4.527558e-01	4.527701e-01	4.527827e-01	4.527938e-01	4.528035e-01	4.528121e-01	4.528196e-01	4.528265e-01	4.528328e-01	4.528388e-01	4.528448e-01	4.528509e-01	4.528575e-01	4.528646e-01	4.528725e-01	4.528813e-01	4.528913e-01	4.529024e-01	4.529148e-01	4.529286e-01	4.529437e-01	4.529601e-01	4.529778e-01	4.529966e-01	4.530163e-01	4.530367e-01	4.530576e-01	4.530786e-01	4.530996e-01	4.531203e-01	4.531404e-01	4.531598e-01	4.531784e-01	4.531960e-01	4.532125e-01	4.532278e-01	4.532421e-01	4.532552e-01	4.532673e-01	4.532783e-01	4.532883e-01	4.532974e-01	4.533057e-01	4.533132e-01	4.533199e-01	4.533260e-01	4.533315e-01	4.533364e-01	4.533409e-01	4.533450e-01	4.533486e-01	4.533519e-01	4.533549e-01	4.533576e-01	4.533600e-01	4.533623e-01	4.533643e-01	4.533661e-01	4.533678e-01	4.533694e-01	4.533707e-01	4.533720e-01	4.533732e-01	4.533743e-01	4.533752e-01	4.533761e-01	4.533770e-01	4.533777e-01	4.533784e-01	4.533790e-01	4.533796e-01	4.533802e-01	4.533807e-01	4.533811e-01	4.533815e-01	4.533819e-01	4.533823e-01	4.533826e-01	4.533829e-01	4.533832e-01	4.533834e-01	4.533836e-01	4.533839e-01	4.613438e-01	4.643891e-01	4.671945e-01	4.689662e-01	4.707202e-01	4.716854e-01	4.726028e-01	4.730354e-01	4.734611e-01	4.736940e-01	4.740120e-01	4.743142e-01	4.746853e-01	4.749824e-01	4.751231e-01	4.749253e-01	4.742570e-01	4.729721e-01	4.709724e-01	4.682689e-01	4.649971e-01	4.613531e-01	4.573922e-01	4.531138e-01	4.485097e-01	4.434482e-01	4.388848e-01	4.367897e-01	4.378683e-01	4.408919e-01	4.442364e-01	4.469906e-01	4.489560e-01	4.502700e-01	4.511307e-01	4.516918e-01	4.520280e-01	4.628310e-01	4.646103e-01	4.660069e-01	4.670462e-01	4.678343e-01	4.683028e-01	4.686149e-01	4.687322e-01	4.688356e-01	4.689276e-01	4.691327e-01	4.694195e-01	4.697932e-01	4.701476e-01	4.703943e-01	4.703983e-01	4.700352e-01	4.691592e-01	4.676688e-01	4.655470e-01	4.628461e-01	4.596795e-01	4.560788e-01	4.520701e-01	4.476572e-01	4.427276e-01	4.383065e-01	4.363979e-01	4.376550e-01	4.407981e-01	4.442024e-01	4.469800e-01	4.489531e-01	4.502693e-01	4.511305e-01	4.516918e-01	4.520280e-01	4.595039e-01	4.603079e-01	4.609258e-01	4.613591e-01	4.616287e-01	4.617463e-01	4.617696e-01	4.617455e-01	4.617622e-01	4.618660e-01	4.621073e-01	4.624716e-01	4.629309e-01	4.634140e-01	4.638543e-01	4.641691e-01	4.642698e-01	4.640453e-01	4.633670e-01	4.621082e-01	4.601899e-01	4.576537e-01	4.545255e-01	4.508658e-01	4.466938e-01	4.419255e-01	4.376691e-01	4.359698e-01	4.374247e-01	4.406983e-01	4.441666e-01	4.469690e-01	4.489501e-01	4.502686e-01	4.511304e-01	4.516918e-01	4.520279e-01	4.555566e-01	4.558968e-01	4.561559e-01	4.563239e-01	4.564158e-01	4.564454e-01	4.564534e-01	4.564854e-01	4.565953e-01	4.568177e-01	4.571688e-01	4.576312e-01	4.581695e-01	4.587328e-01	4.592677e-01	4.597105e-01	4.599837e-01	4.599938e-01	4.596323e-01	4.588003e-01	4.574080e-01	4.554222e-01	4.527829e-01	4.495148e-01	4.456194e-01	4.410364e-01	4.369666e-01	4.355013e-01	4.371750e-01	4.405910e-01	4.441284e-01	4.469572e-01	4.489469e-01	4.502678e-01	4.511302e-01	4.516917e-01	4.520279e-01	4.510252e-01	4.511708e-01	4.512849e-01	4.513625e-01	4.514155e-01	4.514566e-01	4.515154e-01	4.516235e-01	4.518133e-01	4.521031e-01	4.524953e-01	4.529737e-01	4.535112e-01	4.540733e-01	4.546193e-01	4.551002e-01	4.554571e-01	4.556326e-01	4.555623e-01	4.551688e-01	4.543260e-01	4.529222e-01	4.508182e-01	4.479945e-01	4.444180e-01	4.400493e-01	4.361924e-01	4.349896e-01	4.369053e-01	4.404767e-01	4.440881e-01	4.469449e-01	4.489435e-01	4.502670e-01	4.511301e-01	4.516917e-01	4.520279e-01	4.469516e-01	4.470175e-01	4.470736e-01	4.471198e-01	4.471656e-01	4.472226e-01	4.473118e-01	4.474553e-01	4.476735e-01	4.479781e-01	4.483707e-01	4.488424e-01	4.493759e-01	4.499458e-01	4.505150e-01	4.510376e-01	4.514616e-01	4.517451e-01	4.518420e-01	4.517006e-01	4.512211e-01	4.502820e-01	4.486797e-01	4.463175e-01	4.430874e-01	4.389570e-01	4.353401e-01	4.344311e-01	4.366142e-01	4.403546e-01	4.440454e-01	4.469318e-01	4.489399e-01	4.502661e-01	4.511299e-01	4.516916e-01	4.520279e-01	4.430183e-01	4.430496e-01	4.430795e-01	4.431106e-01	4.431512e-01	4.432118e-01	4.433089e-01	4.434595e-01	4.436795e-01	4.439798e-01	4.443643e-01	4.448297e-01	4.453620e-01	4.459371e-01	4.465155e-01	4.470527e-01	4.475037e-01	4.478434e-01	4.480522e-01	4.481148e-01	4.479594e-01	4.474573e-01	4.463536e-01	4.444733e-01	4.416156e-01	4.377484e-01	4.344022e-01	4.338225e-01	4.363011e-01	4.402250e-01	4.440006e-01	4.469182e-01	4.489362e-01	4.502651e-01	4.511297e-01	4.516916e-01	4.520279e-01	4.392146e-01	4.392304e-01	4.392482e-01	4.392717e-01	4.393085e-01	4.393689e-01	4.394671e-01	4.396184e-01	4.398374e-01	4.401359e-01	4.405196e-01	4.409872e-01	4.415251e-01	4.421082e-01	4.426959e-01	4.432466e-01	4.437217e-01	4.441090e-01	4.444035e-01	4.446124e-01	4.446925e-01	4.445400e-01	4.438846e-01	4.424767e-01	4.400003e-01	4.364143e-01	4.333712e-01	4.331605e-01	4.359651e-01	4.400878e-01	4.439535e-01	4.469039e-01	4.489323e-01	4.502641e-01	4.511295e-01	4.516915e-01	4.520279e-01	4.354456e-01	4.354545e-01	4.354667e-01	4.354862e-01	4.355205e-01	4.355797e-01	4.356771e-01	4.358275e-01	4.360454e-01	4.363431e-01	4.367273e-01	4.371974e-01	4.377390e-01	4.383266e-01	4.389190e-01	4.394777e-01	4.399678e-01	4.403880e-01	4.407443e-01	4.410685e-01	4.413479e-01	4.415076e-01	4.412740e-01	4.403286e-01	4.382341e-01	4.349437e-01	4.322388e-01	4.324416e-01	4.356056e-01	4.399430e-01	4.439043e-01	4.468891e-01	4.489282e-01	4.502631e-01	4.511292e-01	4.516915e-01	4.520279e-01	4.317165e-01	4.317222e-01	4.317315e-01	4.317487e-01	4.317809e-01	4.318384e-01	4.319339e-01	4.320824e-01	4.322985e-01	4.325953e-01	4.329799e-01	4.334522e-01	4.339974e-01	4.345898e-01	4.351874e-01	4.357545e-01	4.362592e-01	4.367103e-01	4.371213e-01	4.375462e-01	4.379933e-01	4.384191e-01	4.385634e-01	4.380484e-01	4.363166e-01	4.333270e-01	4.309978e-01	4.316635e-01	4.352226e-01	4.397909e-01	4.438530e-01	4.468737e-01	4.489240e-01	4.502620e-01	4.511290e-01	4.516914e-01	4.520279e-01	4.279198e-01	4.279240e-01	4.279317e-01	4.279472e-01	4.279775e-01	4.280328e-01	4.281259e-01	4.282719e-01	4.284858e-01	4.287817e-01	4.291672e-01	4.296427e-01	4.301928e-01	4.307916e-01	4.313964e-01	4.319743e-01	4.324964e-01	4.329819e-01	4.334511e-01	4.339801e-01	4.345888e-01	4.352640e-01	4.357593e-01	4.356387e-01	4.342374e-01	4.315480e-01	4.296373e-01	4.308233e-01	4.348167e-01	4.396322e-01	4.437999e-01	4.468578e-01	4.489196e-01	4.502608e-01	4.511287e-01	4.516913e-01	4.520279e-01	4.240949e-01	4.240984e-01	4.241053e-01	4.241197e-01	4.241484e-01	4.242016e-01	4.242922e-01	4.244356e-01	4.246477e-01	4.249434e-01	4.253313e-01	4.258121e-01	4.263703e-01	4.269795e-01	4.275969e-01	4.281918e-01	4.287402e-01	4.292704e-01	4.298092e-01	4.304476e-01	4.312035e-01	4.320995e-01	4.329024e-01	4.331138e-01	4.319856e-01	4.295855e-01	4.281415e-01	4.299143e-01	4.343872e-01	4.394680e-01	4.437455e-01	4.468416e-01	4.489151e-01	4.502597e-01	4.511285e-01	4.516913e-01	4.520279e-01	4.205448e-01	4.205475e-01	4.205529e-01	4.205653e-01	4.205910e-01	4.206401e-01	4.207259e-01	4.208644e-01	4.210724e-01	4.213660e-01	4.217550e-01	4.222403e-01	4.228064e-01	4.234251e-01	4.240540e-01	4.246628e-01	4.252329e-01	4.257983e-01	4.263892e-01	4.271019e-01	4.279555e-01	4.290243e-01	4.300715e-01	4.305190e-01	4.295727e-01	4.274339e-01	4.265025e-01	4.289314e-01	4.339311e-01	4.392976e-01	4.436902e-01	4.468251e-01	4.489105e-01	4.502584e-01	4.511282e-01	4.516912e-01	4.520279e-01	4.173328e-01	4.173332e-01	4.173357e-01	4.173436e-01	4.173635e-01	4.174053e-01	4.174828e-01	4.176125e-01	4.178130e-01	4.181012e-01	4.184886e-01	4.189755e-01	4.195465e-01	4.201695e-01	4.208027e-01	4.214132e-01	4.219901e-01	4.225672e-01	4.231816e-01	4.239368e-01	4.248708e-01	4.261075e-01	4.273463e-01	4.279104e-01	4.270269e-01	4.251096e-01	4.247379e-01	4.278867e-01	4.334501e-01	4.391199e-01	4.436335e-01	4.468086e-01	4.489059e-01	4.502572e-01	4.511278e-01	4.516911e-01	4.520280e-01	4.134481e-01	4.134467e-01	4.134473e-01	4.134524e-01	4.134689e-01	4.135065e-01	4.135797e-01	4.137057e-01	4.139045e-01	4.141942e-01	4.145878e-01	4.150844e-01	4.156687e-01	4.163040e-01	4.169510e-01	4.175742e-01	4.181790e-01	4.188000e-01	4.195049e-01	4.204093e-01	4.215651e-01	4.230901e-01	4.245319e-01	4.251205e-01	4.242121e-01	4.225346e-01	4.228374e-01	4.268023e-01	4.329587e-01	4.389375e-01	4.435751e-01	4.467917e-01	4.489012e-01	4.502559e-01	4.511275e-01	4.516910e-01	4.520280e-01	4.085712e-01	4.085734e-01	4.085780e-01	4.085889e-01	4.086119e-01	4.086571e-01	4.087390e-01	4.088755e-01	4.090882e-01	4.093961e-01	4.098142e-01	4.103415e-01	4.109633e-01	4.116405e-01	4.123398e-01	4.130296e-01	4.137415e-01	4.145156e-01	4.154662e-01	4.166662e-01	4.181483e-01	4.199593e-01	4.214468e-01	4.218459e-01	4.207920e-01	4.194439e-01	4.206612e-01	4.256481e-01	4.324680e-01	4.387579e-01	4.435165e-01	4.467745e-01	4.488965e-01	4.502545e-01	4.511272e-01	4.516909e-01	4.520280e-01	4.072642e-01	4.072681e-01	4.072737e-01	4.072850e-01	4.073074e-01	4.073504e-01	4.074293e-01	4.075630e-01	4.077757e-01	4.080893e-01	4.085222e-01	4.090744e-01	4.097313e-01	4.104517e-01	4.112036e-01	4.119591e-01	4.127590e-01	4.136317e-01	4.146818e-01	4.158599e-01	4.172200e-01	4.186889e-01	4.194025e-01	4.187955e-01	4.170309e-01	4.158160e-01	4.180702e-01	4.243254e-01	4.319549e-01	4.385834e-01	4.434599e-01	4.467575e-01	4.488917e-01	4.502532e-01	4.511268e-01	4.516908e-01	4.520281e-01	4.157197e-01	4.156960e-01	4.156697e-01	4.156350e-01	4.156026e-01	4.155787e-01	4.155843e-01	4.156404e-01	4.157787e-01	4.160256e-01	4.164032e-01	4.169096e-01	4.175205e-01	4.181828e-01	4.188453e-01	4.194691e-01	4.200622e-01	4.206191e-01	4.211660e-01	4.215864e-01	4.219892e-01	4.219839e-01	4.205740e-01	4.177178e-01	4.142701e-01	4.124667e-01	4.153473e-01	4.228311e-01	4.313836e-01	4.384047e-01	4.434054e-01	4.467411e-01	4.488869e-01	4.502518e-01	4.511264e-01	4.516907e-01	4.520281e-01	4.211897e-01	4.211261e-01	4.210561e-01	4.209571e-01	4.208543e-01	4.207459e-01	4.206659e-01	4.206344e-01	4.206946e-01	4.208732e-01	4.211951e-01	4.216486e-01	4.221945e-01	4.227605e-01	4.232777e-01	4.237049e-01	4.240341e-01	4.242666e-01	4.243888e-01	4.243111e-01	4.240238e-01	4.226859e-01	4.196599e-01	4.158282e-01	4.119342e-01	4.099713e-01	4.131057e-01	4.213982e-01	4.307783e-01	4.382154e-01	4.433512e-01	4.467252e-01	4.488822e-01	4.502505e-01	4.511261e-01	4.516905e-01	4.520282e-01	3.809392e-01	3.808550e-01	3.807960e-01	3.807218e-01	3.806866e-01	3.806846e-01	3.807724e-01	3.809673e-01	3.813218e-01	3.818432e-01	3.825399e-01	3.833554e-01	3.842222e-01	3.850415e-01	3.857693e-01	3.864081e-01	3.870170e-01	3.876894e-01	3.884588e-01	3.894348e-01	3.904085e-01	3.913041e-01	3.940787e-01	3.991166e-01	4.030465e-01	4.059813e-01	4.111512e-01	4.202229e-01	4.302171e-01	4.380257e-01	4.432971e-01	4.467096e-01	4.488777e-01	4.502491e-01	4.511257e-01	4.516904e-01	4.520282e-01	2.920071e-01	2.921411e-01	2.923165e-01	2.925980e-01	2.929788e-01	2.935062e-01	2.941897e-01	2.950489e-01	2.960814e-01	2.972470e-01	2.984974e-01	2.997164e-01	3.008457e-01	3.017874e-01	3.026070e-01	3.032992e-01	3.040375e-01	3.048459e-01	3.060309e-01	3.079432e-01	3.114504e-01	3.195898e-01	3.353207e-01	3.573821e-01	3.798620e-01	3.964844e-01	4.080937e-01	4.191025e-01	4.297230e-01	4.378473e-01	4.432448e-01	4.466947e-01	4.488732e-01	4.502477e-01	4.511252e-01	4.516903e-01	4.520283e-01	2.689355e-01	2.691590e-01	2.694510e-01	2.698566e-01	2.703647e-01	2.709888e-01	2.717001e-01	2.724664e-01	2.732288e-01	2.739169e-01	2.744744e-01	2.748590e-01	2.751058e-01	2.752592e-01	2.754351e-01	2.756558e-01	2.760482e-01	2.766176e-01	2.777500e-01	2.797018e-01	2.840061e-01	2.919361e-01	3.044981e-01	3.245854e-01	3.534205e-01	3.827060e-01	4.034089e-01	4.177633e-01	4.292586e-01	4.376821e-01	4.431952e-01	4.466805e-01	4.488689e-01	4.502464e-01	4.511248e-01	4.516902e-01	4.520284e-01	2.723033e-01	2.723913e-01	2.724915e-01	2.726102e-01	2.727333e-01	2.728492e-01	2.729324e-01	2.729615e-01	2.729202e-01	2.728127e-01	2.726703e-01	2.725484e-01	2.725170e-01	2.726309e-01	2.729283e-01	2.734412e-01	2.742429e-01	2.754831e-01	2.774031e-01	2.804133e-01	2.850607e-01	2.915485e-01	3.010308e-01	3.156009e-01	3.384784e-01	3.701059e-01	3.980614e-01	4.162219e-01	4.288040e-01	4.375299e-01	4.431489e-01	4.466671e-01	4.488648e-01	4.502450e-01	4.511244e-01	4.516900e-01	4.520286e-01	2.796663e-01	2.796710e-01	2.796681e-01	2.796548e-01	2.796280e-01	2.795860e-01	2.79530