# vtk DataFile Version 3.0
vtk output
ASCII
DATASET UNSTRUCTURED_GRID
POINTS 1830 double
1.000000e+02	0.000000e+00	0.0	9.917900e+01	1.278772e+01	0.0	9.672949e+01	2.536546e+01	0.0	9.269168e+01	3.752670e+01	0.0	8.713187e+01	4.907176e+01	0.0	8.014136e+01	5.981105e+01	0.0	7.183494e+01	6.956826e+01	0.0	6.234898e+01	7.818315e+01	0.0	5.183926e+01	8.551428e+01	0.0	4.047833e+01	9.144126e+01	0.0	2.845276e+01	9.586679e+01	0.0	1.595999e+01	9.871818e+01	0.0	3.205158e+00	9.994862e+01	0.0	-9.602303e+00	9.953791e+01	0.0	-2.225209e+01	9.749279e+01	0.0	-3.453651e+01	9.384684e+01	0.0	-4.625383e+01	8.865993e+01	0.0	-5.721167e+01	8.201723e+01	0.0	-6.723009e+01	7.402780e+01	0.0	-7.614460e+01	6.482284e+01	0.0	-8.380881e+01	5.455349e+01	0.0	-9.009689e+01	4.338837e+01	0.0	-9.490557e+01	3.151082e+01	0.0	-9.815592e+01	1.911586e+01	0.0	-9.979454e+01	6.407022e+00	0.0	-9.979454e+01	-6.407022e+00	0.0	-9.815592e+01	-1.911586e+01	0.0	-9.490557e+01	-3.151082e+01	0.0	-9.009689e+01	-4.338837e+01	0.0	-8.380881e+01	-5.455349e+01	0.0	-7.614460e+01	-6.482284e+01	0.0	-6.723009e+01	-7.402780e+01	0.0	-5.721167e+01	-8.201723e+01	0.0	-4.625383e+01	-8.865993e+01	0.0	-3.453651e+01	-9.384684e+01	0.0	-2.225209e+01	-9.749279e+01	0.0	-9.602303e+00	-9.953791e+01	0.0	3.205158e+00	-9.994862e+01	0.0	1.595999e+01	-9.871818e+01	0.0	2.845276e+01	-9.586679e+01	0.0	4.047833e+01	-9.144126e+01	0.0	5.183926e+01	-8.551428e+01	0.0	6.234898e+01	-7.818315e+01	0.0	7.183494e+01	-6.956826e+01	0.0	8.014136e+01	-5.981105e+01	0.0	8.713187e+01	-4.907176e+01	0.0	9.269168e+01	-3.752670e+01	0.0	9.672949e+01	-2.536546e+01	0.0	9.917900e+01	-1.278772e+01	0.0	0.000000e+00	0.000000e+00	0.0	3.014070e-03	3.989409e-03	0.0	6.140947e-03	8.128130e-03	0.0	1.054082e-02	1.120066e-02	0.0	1.516657e-02	1.431233e-02	0.0	2.049405e-02	1.654967e-02	0.0	2.602528e-02	1.883143e-02	0.0	3.192485e-02	2.072609e-02	0.0	3.804248e-02	2.264524e-02	0.0	4.443450e-02	2.441600e-02	0.0	5.106158e-02	2.617537e-02	0.0	5.794873e-02	2.784326e-02	0.0	6.508692e-02	2.945649e-02	0.0	7.247513e-02	3.103578e-02	0.0	8.011239e-02	3.259439e-02	0.0	8.797648e-02	3.425098e-02	0.0	9.604099e-02	3.613961e-02	0.0	1.042844e-01	3.832071e-02	0.0	1.127084e-01	4.079599e-02	0.0	1.212940e-01	4.358774e-02	0.0	1.300502e-01	4.667238e-02	0.0	1.390519e-01	4.982061e-02	0.0	1.483152e-01	5.298700e-02	0.0	1.578174e-01	5.623508e-02	0.0	1.677222e-01	5.901586e-02	0.0	1.779299e-01	6.165580e-02	0.0	1.884192e-01	6.413567e-02	0.0	1.993792e-01	6.543175e-02	0.0	2.105789e-01	6.675620e-02	0.0	2.220617e-01	6.717657e-02	0.0	2.338077e-01	6.699003e-02	0.0	2.457790e-01	6.675931e-02	0.0	2.579511e-01	6.601195e-02	0.0	2.703365e-01	6.525149e-02	0.0	2.829389e-01	6.474426e-02	0.0	2.957481e-01	6.445109e-02	0.0	3.087451e-01	6.419400e-02	0.0	3.218945e-01	6.509725e-02	0.0	3.352123e-01	6.601207e-02	0.0	3.486684e-01	6.716297e-02	0.0	3.622528e-01	6.853057e-02	0.0	3.759719e-01	6.989549e-02	0.0	3.898668e-01	7.051758e-02	0.0	4.038699e-01	7.114452e-02	0.0	4.179445e-01	7.075595e-02	0.0	4.320796e-01	6.947497e-02	0.0	4.462695e-01	6.811126e-02	0.0	4.602735e-01	6.515921e-02	0.0	4.743141e-01	6.219944e-02	0.0	4.883495e-01	5.911125e-02	0.0	5.023668e-01	5.590574e-02	0.0	5.163768e-01	5.270191e-02	0.0	5.305789e-01	5.066048e-02	0.0	5.447489e-01	4.865057e-02	0.0	5.589340e-01	4.762856e-02	0.0	5.731268e-01	4.769644e-02	0.0	5.872386e-01	4.776392e-02	0.0	6.012174e-01	4.879563e-02	0.0	6.150875e-01	4.983092e-02	0.0	6.288498e-01	5.062489e-02	0.0	6.424923e-01	5.116608e-02	0.0	6.559885e-01	5.170148e-02	0.0	6.692781e-01	5.047395e-02	0.0	6.823985e-01	4.921739e-02	0.0	6.952296e-01	4.727812e-02	0.0	7.077358e-01	4.449298e-02	0.0	7.200490e-01	4.175083e-02	0.0	7.320497e-01	3.860000e-02	0.0	7.438268e-01	3.543470e-02	0.0	7.554309e-01	3.249114e-02	0.0	7.669041e-01	2.996734e-02	0.0	7.781503e-01	2.749348e-02	0.0	7.893395e-01	2.614649e-02	0.0	8.003143e-01	2.498314e-02	0.0	8.110785e-01	2.433916e-02	0.0	8.216180e-01	2.404634e-02	0.0	8.319087e-01	2.380866e-02	0.0	8.419496e-01	2.365572e-02	0.0	8.517351e-01	2.343745e-02	0.0	8.612496e-01	2.279017e-02	0.0	8.705117e-01	2.216005e-02	0.0	8.794853e-01	2.116153e-02	0.0	8.881994e-01	2.008668e-02	0.0	8.966520e-01	1.894593e-02	0.0	9.048314e-01	1.764214e-02	0.0	9.127686e-01	1.637698e-02	0.0	9.204487e-01	1.504610e-02	0.0	9.278890e-01	1.373376e-02	0.0	9.350942e-01	1.244921e-02	0.0	9.420662e-01	1.118191e-02	0.0	9.488130e-01	9.955135e-03	0.0	9.553334e-01	8.739398e-03	0.0	9.616371e-01	7.564063e-03	0.0	9.677241e-01	6.404956e-03	0.0	9.736025e-01	5.281264e-03	0.0	9.792733e-01	4.172112e-03	0.0	9.847440e-01	3.092195e-03	0.0	9.900180e-01	2.033111e-03	0.0	9.950996e-01	9.922691e-04	0.0	1.000000e+00	0.000000e+00	0.0	9.950063e-01	2.428674e-04	0.0	9.898219e-01	4.339217e-04	0.0	9.844428e-01	5.733868e-04	0.0	9.788648e-01	6.691112e-04	0.0	9.730835e-01	7.408866e-04	0.0	9.670940e-01	7.562628e-04	0.0	9.608920e-01	7.490715e-04	0.0	9.544732e-01	6.776613e-04	0.0	9.478329e-01	5.900575e-04	0.0	9.409684e-01	4.081895e-04	0.0	9.338738e-01	2.202258e-04	0.0	9.265486e-01	-7.054823e-05	0.0	9.189865e-01	-3.925662e-04	0.0	9.111847e-01	-7.502821e-04	0.0	9.031408e-01	-1.161549e-03	0.0	8.948501e-01	-1.585430e-03	0.0	8.863091e-01	-1.995604e-03	0.0	8.775166e-01	-2.414552e-03	0.0	8.684691e-01	-2.789616e-03	0.0	8.591646e-01	-3.102646e-03	0.0	8.496052e-01	-3.417284e-03	0.0	8.397886e-01	-3.663991e-03	0.0	8.297174e-01	-3.917095e-03	0.0	8.194070e-01	-4.502631e-03	0.0	8.088477e-01	-5.166004e-03	0.0	7.980940e-01	-6.378246e-03	0.0	7.871296e-01	-7.954560e-03	0.0	7.759921e-01	-9.916676e-03	0.0	7.647636e-01	-1.266613e-02	0.0	7.533072e-01	-1.547139e-02	0.0	7.417499e-01	-1.878362e-02	0.0	7.299963e-01	-2.222348e-02	0.0	7.180114e-01	-2.563741e-02	0.0	7.057699e-01	-2.890656e-02	0.0	6.933354e-01	-3.222724e-02	0.0	6.805493e-01	-3.484575e-02	0.0	6.675156e-01	-3.718417e-02	0.0	6.542896e-01	-3.936679e-02	0.0	6.407676e-01	-4.052695e-02	0.0	6.270985e-01	-4.169974e-02	0.0	6.132835e-01	-4.274600e-02	0.0	5.993401e-01	-4.372438e-02	0.0	5.853015e-01	-4.484798e-02	0.0	5.712478e-01	-4.675936e-02	0.0	5.571130e-01	-4.868176e-02	0.0	5.431233e-01	-5.169186e-02	0.0	5.291953e-01	-5.528891e-02	0.0	5.152513e-01	-5.896783e-02	0.0	5.014628e-01	-6.327530e-02	0.0	4.876672e-01	-6.758504e-02	0.0	4.737728e-01	-7.152013e-02	0.0	4.598043e-01	-7.511151e-02	0.0	4.458723e-01	-7.869348e-02	0.0	4.316108e-01	-8.008450e-02	0.0	4.174094e-01	-8.142926e-02	0.0	4.032780e-01	-8.155086e-02	0.0	3.892308e-01	-8.048850e-02	0.0	3.752959e-01	-7.940763e-02	0.0	3.615856e-01	-7.741113e-02	0.0	3.480094e-01	-7.543416e-02	0.0	3.345444e-01	-7.375752e-02	0.0	3.212058e-01	-7.235354e-02	0.0	3.080354e-01	-7.099815e-02	0.0	2.949751e-01	-7.112317e-02	0.0	2.821054e-01	-7.124636e-02	0.0	2.694455e-01	-7.167328e-02	0.0	2.570026e-01	-7.237121e-02	0.0	2.447750e-01	-7.305022e-02	0.0	2.327513e-01	-7.298915e-02	0.0	2.209567e-01	-7.292925e-02	0.0	2.094857e-01	-7.189729e-02	0.0	1.983428e-01	-6.989853e-02	0.0	1.874396e-01	-6.794278e-02	0.0	1.771950e-01	-6.445727e-02	0.0	1.672155e-01	-6.094305e-02	0.0	1.575390e-01	-5.734568e-02	0.0	1.482803e-01	-5.337481e-02	0.0	1.392556e-01	-4.950431e-02	0.0	1.303986e-01	-4.589763e-02	0.0	1.217180e-01	-4.253317e-02	0.0	1.132746e-01	-3.926059e-02	0.0	1.048106e-01	-3.687052e-02	0.0	9.654112e-02	-3.469465e-02	0.0	8.846783e-02	-3.278867e-02	0.0	8.053356e-02	-3.140277e-02	0.0	7.283994e-02	-3.005890e-02	0.0	6.536155e-02	-2.889250e-02	0.0	5.811599e-02	-2.777543e-02	0.0	5.116374e-02	-2.636656e-02	0.0	4.446381e-02	-2.486138e-02	0.0	3.810746e-02	-2.296426e-02	0.0	3.201970e-02	-2.092816e-02	0.0	2.631345e-02	-1.850660e-02	0.0	2.086022e-02	-1.603359e-02	0.0	1.573042e-02	-1.336636e-02	0.0	1.088788e-02	-1.060233e-02	0.0	6.356969e-03	-7.714211e-03	0.0	2.406159e-03	-4.351799e-03	0.0	9.615463e-01	2.236393e-02	0.0	9.623918e-01	1.704932e-02	0.0	9.675718e-01	1.858665e-02	0.0	8.658692e+01	2.667574e+01	0.0	8.181719e+01	3.567005e+01	0.0	7.580883e+01	2.504106e+01	0.0	7.291965e+01	-1.198275e+01	0.0	7.508872e+01	-2.436414e+01	0.0	8.617422e+01	-1.539815e+01	0.0	9.127320e+01	-4.493220e+00	0.0	2.751050e+01	2.399414e+01	0.0	3.788565e+01	2.729350e+01	0.0	3.090557e+01	3.498121e+01	0.0	7.264182e+01	3.402501e+01	0.0	6.922222e+01	-3.531255e+01	0.0	7.606284e+01	-4.325041e+01	0.0	8.149552e+01	-3.587922e+01	0.0	8.677128e+01	-2.755729e+01	0.0	5.551955e+01	2.308236e+01	0.0	4.847563e+01	3.017372e+01	0.0	4.553209e+01	2.019119e+01	0.0	6.410486e+01	-5.198830e+01	0.0	6.086734e+01	-5.965812e+01	0.0	6.875342e+01	-5.994130e+01	0.0	6.838467e+01	5.967984e+01	0.0	7.265783e+01	5.050964e+01	0.0	5.774004e+01	6.534001e+01	0.0	4.788776e+01	-6.439402e+01	0.0	4.546649e+01	-7.404222e+01	0.0	5.425519e+01	-7.220992e+01	0.0	6.848307e+01	-4.464711e+01	0.0	5.115957e+01	7.516880e+01	0.0	2.747034e+01	5.320721e+01	0.0	2.078201e+01	6.329620e+01	0.0	1.728573e+01	5.099166e+01	0.0	5.401974e+01	-5.480053e+01	0.0	5.581488e+01	-6.378080e+01	0.0	2.884099e+01	7.434386e+01	0.0	4.034943e+01	7.880735e+01	0.0	3.036893e+01	8.531419e+01	0.0	3.623109e+01	-6.725871e+01	0.0	2.722882e+01	-7.658498e+01	0.0	3.856628e+01	-8.024557e+01	0.0	1.109621e+00	3.719619e+01	0.0	8.026968e+00	4.765670e+01	0.0	-2.048874e+00	5.189131e+01	0.0	8.769556e+00	7.677065e+01	0.0	1.812369e+01	7.433839e+01	0.0	1.578892e+01	8.189178e+01	0.0	5.032265e-02	-4.626578e-02	0.0	4.663615e-02	-5.768454e-02	0.0	5.861173e-02	-5.437530e-02	0.0	2.844841e-03	-1.756627e-01	0.0	2.508429e-02	-2.459818e-01	0.0	5.351412e-02	-1.733034e-01	0.0	5.385193e-01	-7.701751e-02	0.0	5.527305e-01	-9.192985e-02	0.0	5.537470e-01	-7.182512e-02	0.0	3.617470e-01	9.148220e-02	0.0	3.472759e-01	8.632917e-02	0.0	3.584458e-01	8.080700e-02	0.0	4.779882e-01	-7.927082e-02	0.0	4.879690e-01	-8.284218e-02	0.0	4.575643e-01	-1.303973e-01	0.0	4.814695e-01	-1.201387e-01	0.0	4.622616e-01	-1.072825e-01	0.0	4.969757e-01	-7.454129e-02	0.0	3.149466e-01	-8.005140e-02	0.0	8.960643e-01	-1.506452e-02	0.0	9.057516e-01	-1.320397e-02	0.0	8.997106e-01	-7.451579e-03	0.0	4.827570e-02	-3.706073e-02	0.0	4.164043e-02	-3.365804e-02	0.0	4.136390e-02	-4.069008e-02	0.0	2.806654e-02	-2.436245e-02	0.0	4.693541e-02	-3.056058e-02	0.0	4.159969e-02	-2.828128e-02	0.0	2.521870e-
[...]
POINT_DATA 1830

SCALARS Density double 1
LOOKUP_TABLE default
1.291373e+00	1.291481e+00	1.291989e+00	1.292212e+00	1.292122e+00	1.292051e+00	1.292026e+00	1.291982e+00	1.291925e+00	1.291873e+00	1.291834e+00	1.291821e+00	1.291832e+00	1.291883e+00	1.291965e+00	1.292042e+00	1.292115e+00	1.292170e+00	1.292212e+00	1.292243e+00	1.292265e+00	1.292281e+00	1.292293e+00	1.292304e+00	1.292313e+00	1.292323e+00	1.292333e+00	1.292346e+00	1.292362e+00	1.292382e+00	1.292408e+00	1.292441e+00	1.292486e+00	1.292539e+00	1.292601e+00	1.292672e+00	1.292745e+00	1.292796e+00	1.292805e+00	1.292775e+00	1.292720e+00	1.292653e+00	1.292586e+00	1.292520e+00	1.292449e+00	1.292398e+00	1.292423e+00	1.292293e+00	1.291825e+00	1.560673e+00	1.272834e+00	1.221081e+00	1.092825e+00	1.034774e+00	9.982332e-01	1.040505e+00	1.073821e+00	1.107725e+00	1.123248e+00	1.141235e+00	1.157367e+00	1.183311e+00	1.210133e+00	1.240082e+00	1.266777e+00	1.282921e+00	1.284545e+00	1.277555e+00	1.259529e+00	1.223684e+00	1.177054e+00	1.135834e+00	1.067881e+00	9.999093e-01	9.612194e-01	8.573621e-01	7.722663e-01	7.203060e-01	6.413722e-01	6.108307e-01	5.936054e-01	5.765913e-01	5.930094e-01	6.273683e-01	6.479957e-01	7.178161e-01	7.989663e-01	8.245082e-01	8.614235e-01	8.850208e-01	8.489468e-01	8.117793e-01	7.635605e-01	6.840759e-01	6.457894e-01	5.800748e-01	5.158053e-01	5.559723e-01	7.551573e-01	1.097066e+00	1.197713e+00	1.208646e+00	1.210438e+00	1.222814e+00	1.205324e+00	1.188797e+00	1.171417e+00	1.129929e+00	1.091957e+00	1.064228e+00	1.008464e+00	9.845613e-01	1.018270e+00	1.036790e+00	1.082495e+00	1.123838e+00	1.151255e+00	1.185545e+00	1.209372e+00	1.220747e+00	1.237640e+00	1.241639e+00	1.233068e+00	1.233009e+00	1.219855e+00	1.206770e+00	1.195842e+00	1.178539e+00	1.175195e+00	1.174708e+00	1.172984e+00	1.183552e+00	1.186304e+00	1.194135e+00	1.202489e+00	1.208006e+00	1.216164e+00	1.221727e+00	1.227235e+00	1.232500e+00	1.237419e+00	1.242629e+00	1.247460e+00	1.252850e+00	1.258380e+00	1.263786e+00	1.272842e+00	1.276076e+00	1.276596e+00	1.345250e+00	1.332617e+00	1.330914e+00	1.333180e+00	1.334038e+00	1.334757e+00	1.335113e+00	1.336242e+00	1.336137e+00	1.336565e+00	1.336794e+00	1.335170e+00	1.334411e+00	1.333871e+00	1.331829e+00	1.331710e+00	1.331106e+00	1.331138e+00	1.333526e+00	1.336290e+00	1.339729e+00	1.349530e+00	1.354399e+00	1.360204e+00	1.365989e+00	1.363362e+00	1.367234e+00	1.358637e+00	1.349124e+00	1.339562e+00	1.319529e+00	1.299392e+00	1.282797e+00	1.254195e+00	1.230109e+00	1.224549e+00	1.202617e+00	1.205666e+00	1.226755e+00	1.237338e+00	1.255836e+00	1.279281e+00	1.285458e+00	1.295483e+00	1.302958e+00	1.285177e+00	1.274662e+00	1.257753e+00	1.244314e+00	1.056694e+00	7.203977e-01	6.000025e-01	6.621375e-01	7.648841e-01	8.339466e-01	9.518106e-01	1.026268e+00	1.100301e+00	1.192760e+00	1.239867e+00	1.265925e+00	1.314902e+00	1.321910e+00	1.291896e+00	1.282371e+00	1.247902e+00	1.186855e+00	1.083522e+00	9.054614e-01	8.561633e-01	9.207153e-01	9.521054e-01	1.046039e+00	1.176478e+00	1.223832e+00	1.281738e+00	1.343608e+00	1.383963e+00	1.406606e+00	1.444558e+00	1.463024e+00	1.458880e+00	1.469958e+00	1.464426e+00	1.454959e+00	1.450321e+00	1.429939e+00	1.418492e+00	1.412325e+00	1.414961e+00	1.428808e+00	1.451830e+00	1.484639e+00	1.510421e+00	1.544197e+00	1.579315e+00	1.605515e+00	1.706113e+00	1.252693e+00	1.250221e+00	1.255485e+00	1.292078e+00	1.292126e+00	1.292034e+00	1.292096e+00	1.292342e+00	1.292089e+00	1.291689e+00	1.291742e+00	1.291913e+00	1.291723e+00	1.292122e+00	1.292412e+00	1.292395e+00	1.292360e+00	1.292340e+00	1.292060e+00	1.292002e+00	1.292001e+00	1.292479e+00	1.292526e+00	1.292492e+00	1.292010e+00	1.292036e+00	1.291958e+00	1.292628e+00	1.292666e+00	1.292608e+00	1.292422e+00	1.291920e+00	1.291697e+00	1.291658e+00	1.291526e+00	1.292542e+00	1.292574e+00	1.291779e+00	1.291858e+00	1.291817e+00	1.292726e+00	1.292792e+00	1.292722e+00	1.291046e+00	1.291360e+00	1.291423e+00	1.291693e+00	1.291711e+00	1.291737e+00	1.442216e+00	1.445294e+00	1.440279e+00	1.400950e+00	1.366178e+00	1.382947e+00	1.277829e+00	1.292052e+00	1.290390e+00	8.817730e-01	8.389211e-01	8.799927e-01	7.588402e-01	1.024319e+00	9.061998e-01	9.102952e-01	7.978027e-01	1.215617e+00	1.305098e+00	1.342121e+00	1.341559e+00	1.336676e+00	1.436858e+00	1.442454e+00	1.449179e+00	1.476392e+00	1.427806e+00	1.431828e+00	1.178266e+00	1.236780e+00	1.188107e+00	1.097809e+00	1.059929e+00	1.325870e+00	1.337417e+00	1.330028e+00	1.338509e+00	1.316800e+00	1.300734e+00	1.298904e+00	1.254878e+00	1.338849e+00	1.348023e+00	1.247353e+00	1.225107e+00	1.199716e+00	1.196892e+00	1.181036e+00	1.171834e+00	1.154938e+00	1.221738e+00	1.157622e+00	1.100989e+00	1.118009e+00	1.258354e+00	1.263244e+00	1.270404e+00	9.503417e-01	8.725986e-01	8.657444e-01	5.739762e-01	8.345037e-01	5.337619e-01	6.125861e-01	6.492913e-01	6.405777e-01	7.560502e-01	9.155874e-01	8.524089e-01	6.796256e-01	6.014147e-01	6.587117e-01	8.211254e-01	9.237969e-01	6.553238e-01	6.634150e-01	1.278747e+00	1.254436e+00	1.266815e+00	9.522124e-01	8.788553e-01	1.177897e+00	1.220111e+00	1.110262e+00	1.295061e+00	1.294101e+00	1.146736e+00	1.073549e+00	1.099639e+00	1.285776e+00	1.348541e+00	1.353368e+00	1.348228e+00	1.339801e+00	1.339397e+00	1.346091e+00	1.342425e+00	1.342150e+00	1.200611e+00	1.200889e+00	1.190376e+00	1.231205e+00	1.237727e+00	1.247445e+00	1.206144e+00	1.212912e+00	1.218779e+00	1.185463e+00	1.240556e+00	1.238011e+00	1.238569e+00	1.338882e+00	1.240771e+00	1.241825e+00	1.236275e+00	1.198750e+00	1.213685e+00	1.233943e+00	1.290623e+00	1.290602e+00	1.233041e+00	1.208156e+00	1.190780e+00	1.237754e+00	1.238119e+00	1.212586e+00	1.205401e+00	1.212494e+00	1.217808e+00	1.205264e+00	1.338621e+00	1.338369e+00	9.750102e-01	8.993986e-01	9.397510e-01	1.262910e+00	1.264577e+00	1.241564e+00	1.189943e+00	1.109073e+00	1.159144e+00	1.266315e+00	1.282319e+00	1.361891e+00	1.366546e+00	1.362838e+00	1.336393e+00	1.338961e+00	1.279637e+00	1.295732e+00	1.377541e+00	1.397569e+00	1.360604e+00	1.301538e+00	1.300374e+00	1.303404e+00	1.255852e+00	1.236456e+00	1.287557e+00	1.304981e+00	1.285359e+00	1.509154e+00	1.430598e+00	1.437577e+00	1.351510e+00	1.333896e+00	1.376011e+00	1.443850e+00	1.449264e+00	1.449734e+00	1.532578e+00	1.544823e+00	1.513584e+00	1.442899e+00	1.502239e+00	1.533293e+00	1.509982e+00	1.456573e+00	1.445988e+00	1.454825e+00	1.348780e+00	1.361143e+00	1.347046e+00	1.270549e+00	1.241443e+00	1.253291e+00	1.236128e+00	1.240855e+00	1.364928e+00	1.370259e+00	1.367223e+00	1.269629e+00	1.264556e+00	1.016741e+00	1.090496e+00	1.093411e+00	1.277050e+00	8.919985e-01	8.078749e-01	1.279712e+00	1.273300e+00	1.225550e+00	1.230534e+00	1.213769e+00	1.255709e+00	1.233335e+00	1.323416e+00	1.317817e+00	1.328209e+00	1.346556e+00	1.341335e+00	1.339403e+00	1.446824e+00	1.306822e+00	1.313092e+00	1.311326e+00	1.343515e+00	1.340367e+00	1.348043e+00	1.352674e+00	1.345298e+00	1.353887e+00	1.360035e+00	1.362848e+00	1.295378e+00	1.299718e+00	1.301642e+00	1.365342e+00	1.295579e+00	1.284575e+00	1.284836e+00	1.256443e+00	1.269602e+00	1.246980e+00	1.368167e+00	1.367256e+00	1.366098e+00	1.363693e+00	1.285584e+00	1.283538e+00	1.269840e+00	1.277272e+00	1.291674e+00	1.289009e+00	1.285090e+00	1.229290e+00	1.202235e+00	1.214271e+00	1.158068e+00	1.292819e+00	1.292768e+00	1.299597e+00	1.301531e+00	1.292767e+00	1.292851e+00	1.292911e+00	1.102612e+00	1.027685e+00	1.067228e+00	1.390645e+00	1.355003e+00	1.381273e+00	1.292693e+00	1.292600e+00	1.292645e+00	1.295061e+00	1.294124e+00	1.294450e+00	1.436146e+00	1.292902e+00	1.292842e+00	1.292869e+00	1.437615e+00	1.447815e+00	1.433272e+00	1.580905e+00	1.575952e+00	1.560335e+00	1.302910e+00	1.302360e+00	1.298909e+00	1.292699e+00	1.293191e+00	1.293508e+00	1.293218e+00	1.299958e+00	1.298748e+00	1.302172e+00	1.292657e+00	1.292539e+00	1.292550e+00	1.296860e+00	1.295798e+00	1.292538e+00	1.292913e+00	1.292982e+00	1.292710e+00	1.292463e+00	1.292480e+00	1.292661e+00	1.292394e+00	1.292426e+00	1.292400e+00	1.292423e+00	1.292379e+00	1.292373e+00	1.292355e+00	1.292326e+00	1.292315e+00	1.292283e+00	1.292301e+00	1.292305e+00	1.292256e+00	1.292222e+00	1.292231e+00	1.381517e+00	1.353702e+00	1.359392e+00	1.131105e+00	1.149187e+00	1.049527e+00	1.021562e+00	1.291782e+00	1.292075e+00	1.291440e+00	1.291872e+00	1.292027e+00	1.292122e+00	1.292206e+00	1.292098e+00	1.194324e+00	1.207568e+00	1.184351e+00	1.240641e+00	1.208754e+00	1.269214e+00	1.291951e+00	1.292013e+00	1.157676e+00	1.212807e+00	1.115029e+00	9.653239e-01	1.047826e+00	1.076261e+00	6.776875e-01	6.803769e-01	1.291966e+00	1.291862e+00	7.526399e-01	6.952113e-01	8.336203e-01	6.100309e-01	6.573897e-01	7.327154e-01	6.665850e-01	1.291854e+00	1.166270e+00	1.176523e+00	1.259178e+00	1.238075e+00	1.239516e+00	1.272964e+00	1.287844e+00	1.277121e+00	1.291238e+00	1.289965e+00	1.283789e+00	1.279436e+00	1.282556e+00	1.288949e+00	1.291308e+00	1.293172e+00	1.268586e+00	1.276085e+00	1.334761e+00	1.321944e+00	1.069087e+00	1.197318e+00	1.186611e+00	1.182038e+00	1.100209e+00	1.135822e+00	1.122739e+00	1.082179e+00	1.063716e+00	1.155687e+00	1.091688e+00	1.205893e+00	1.212458e+00	1.215740e+00	1.093506e+00	1.081981e+00	1.314638e+00	1.322053e+00	1.328459e+00	1.290932e+00	1.288945e+00	1.283929e+00	1.286428e+00	1.282876e+00	1.281712e+00	1.283587e+00	1.279485e+00	1.277591e+00	1.277133e+00	1.261422e+00	1.256349e+00	1.266717e+00	1.262918e+00	1.257938e+00	1.248939e+00	1.247657e+00	1.284436e+00	1.265051e+00	1.272972e+00	1.150646e+00	1.104303e+00	1.045020e+00	1.261152e+00	1.271576e+00	1.277042e+00	1.230865e+00	1.218611e+00	1.210783e+00	1.214774e+00	1.214445e+00	1.235098e+00	1.231640e+00	1.205407e+00	1.197525e+00	1.191235e+00	1.203570e+00	1.253386e+00	1.248002e+00	1.231057e+00	1.202626e+00	1.291888e+00	1.290795e+00	1.292326e+00	1.292328e+00	1.291955e+00	1.291891e+00	1.313584e+00	1.334766e+00	1.292490e+00	1.293434e+00	1.293623e+00	1.292403e+00	1.292936e+00	1.292861e+00	1.293018e+00	1.292186e+00	1.292750e+00	1.292803e+00	1.292813e+00	1.293289e+00	1.291867e+00	1.291826e+00	1.291787e+00	1.291771e+00	1.291771e+00	1.291564e+00	1.291717e+00	1.291933e+00	1.291743e+00	1.292432e+00	1.291801e+00	1.291870e+00	1.292053e+00	1.293275e+00	1.293503e+00	1.293679e+00	1.293148e+00	1.293036e+00	1.336005e+00	1.325880e+00	1.292275e+00	1.292217e+00	1.292232e+00	1.293499e+00	1.294606e+00	1.296255e+00	1.291627e+00	1.291370e+00	1.291603e+00	1.292128e+00	1.291941e+00	1.291631e+00	1.290938e+00	1.290276e+00	1.291487e+00	1.288585e+00	1.289845e+00	1.289202e+00	1.292420e+00	1.292653e+00	1.292506e+00	1.292907e+00	1.292354e+00	1.292360e+00	1.292318e+00	1.292299e+00	1.291780e+00	1.291621e+00	1.291734e+00	1.291630e+00	1.292873e+00	1.292947e+00	1.292978e+00	1.292931e+00	1.292076e+00	1.292023e+00	1.291962e+00	1.291753e+00	1.291844e+00	1.291808e+00	1.291896e+00	1.291958e+00	1.291745e+00	1.291679e+00	1.292290e+00	1.292390e+00	1.293095e+00	1.292766e+00	1.292976e+00	1.292842e+00	1.292538e+00	1.292651e+00	1.292512e+00	1.292427e+00	1.292078e+00	1.292154e+00	1.291881e+00	1.292407e+00	1.292133e+00	1.383380e+00	1.377428e+00	1.291397e+00	1.291263e+00	1.291870e+00	1.293152e+00	1.292019e+00	1.291905e+00	1.292418e+00	1.292326e+00	1.292450e+00	1.291456e+00	1.291765e+00	1.291750e+00	1.292893e+00	1.293060e+00	1.294167e+00	1.293539e+00	1.291223e+00	1.291295e+00	1.289909e+00	1.291694e+00	1.292958e+00	1.293291e+00	1.295107e+00	1.293923e+00	1.294933e+00	1.290537e+00	1.292259e+00	1.292233e+00	1.292178e+00	1.292348e+00	1.292334e+00	1.291747e+00	1.292278e+00	1.292235e+00	1.292294e+00	1.292355e+00	1.292409e+00	1.292137e+00	1.292052e+00	1.292935e+00	1.293054e+00	1.291807e+00	1.292782e+00	1.292781e+00	1.292785e+00	1.291768e+00	1.291805e+00	1.291743e+00	1.292790e+00	1.292046e+00	1.292099e+00	1.292404e+00	1.292454e+00	1.292551e+00	1.292652e+00	1.291357e+00	1.292455e+00	1.293064e+00	1.292173e+00	1.291634e+00	1.291512e+00	1.292695e+00	1.291422e+00	1.291822e+00	1.291857e+00	1.291761e+00	1.289390e+00	1.292610e+00	1.292546e+00	1.292481e+00	1.292539e+00	1.291948e+00	1.291890e+00	1.291319e+00	1.292855e+00	1.292718e+00	1.291894e+00	1.293101e+00	1.291771e+00	1.292390e+00	1.292110e+00	1.292478e+00	1.292635e+00	1.292023e+00	1.292487e+00	1.292322e+00	1.288986e+00	1.286940e+00	1.291780e+00	1.292441e+00	1.292655e+00	1.341922e+00	1.343957e+00	1.347244e+00	1.543659e+00	1.540706e+00	1.570043e+00	1.293784e+00	1.292523e+00	1.294731e+00	1.293435e+00	1.294409e+00	1.294869e+00	1.292747e+00	1.293039e+00	1.293851e+00	1.290906e+00	1.291604e+00	1.292686e+00	1.290696e+00	1.287811e+00	1.287347e+00	1.287660e+00	1.289560e+00	1.287883e+00	1.291208e+00	1.292883e+00	1.292915e+00	1.292061e+00	1.295563e+00	1.292817e+00	1.292101e+00	1.296955e+00	1.295664e+00	1.296017e+00	1.334207e+00	1.292728e+00	1.294669e+00	1.291454e+00	1.288712e+00	1.291223e+00	1.294060e+00	1.345029e+00	1.290996e+00	1.285190e+00	1.290204e+00	1.288661e+00	1.296371e+00	1.296552e+00	1.298630e+00	1.297418e+00	1.295483e+00	1.318973e+00	1.308690e+00	1.229188e+00	1.217035e+00	1.229936e+00	1.285167e+00	1.294045e+00	1.290890e+00	1.340598e+00	1.329374e+00	7.497484e-01	8.421450e-01	7.614680e-01	1.293149e+00	1.420999e+00	1.400674e+00	1.298031e+00	1.300181e+00	1.297363e+00	1.285180e+00	1.295512e+00	1.297104e+00	1.297575e+00	1.284760e+00	1.298104e+00	1.292862e+00	1.127520e+00	1.066281e+00	1.071185e+00	1.281206e+00	1.286262e+00	1.275727e+00	1.431673e+00	1.406797e+00	1.420080e+00	1.292472e+00	1.300916e+00	1.210485e+00	1.192974e+00	1.281764e+00	1.297878e+00	1.275021e+00	1.296819e+00	1.288755e+00	1.287785e+00	1.302886e+00	1.305196e+00	1.306353e+00	1.304669e+00	1.302198e+00	1.302478e+00	1.295021e+00	1.303848e+00	1.298889e+00	1.298238e+00	1.270735e+00	1.293369e+00	1.301873e+00	1.259577e+00	9.952813e-01	1.090414e+00	7.622487e-01	1.276789e+00	1.259788e+00	1.241837e+00	1.309664e+00	1.315000e+00	1.327527e+00	1.320741e+00	1.296947e+00	1.304470e+00	1.307698e+00	1.294701e+00	1.310577e+00	1.306934e+00	1.306186e+00	1.290811e+00	1.278906e+00	1.337384e+00	1.327498e+00	1.321125e+00	1.317889e+00	1.334293e+00	5.896567e-01	5.918090e-01	6.025613e-01	1.336031e+00	1.336985e+00	1.339498e+00	1.302602e+00	1.301328e+00	1.304107e+00	1.154471e+00	1.290857e+00	1.162396e+00	1.216912e+00	1.318706e+00	1.363741e+00	1.343238e+00	1.302923e+00	1.314862e+00	1.301440e+00	1.300204e+00	1.286530e+00	1.336212e+00	1.334782e+00	1.224346e+00	1.211154e+00	1.286297e+00	1.271136e+00	1.305644e+00	1.301913e+00	1.256439e+00	1.319737e+00	1.253221e+00	1.250105e+00	1.243204e+00	1.308340e+00	1.275740e+00	1.298508e+00	1.280670e+00	1.218392e+00	1.264328e+00	1.269730e+00	1.331947e+00	1.310946e+00	1.290738e+00	1.275825e+00	1.289977e+00	1.301945e+00	1.277752e+00	1.324373e+00	1.310830e+00	1.328354e+00	1.322400e+00	1.302025e+00	1.296454e+00	1.290256e+00	1.255427e+00	1.222573e+00	1.296945e+00	1.209320e+00	1.180645e+00	1.218961e+00	1.290918e+00	1.175597e+00	1.301092e+00	1.342318e+00	1.365517e+00	1.342503e+00	1.278586e+00	1.117855e+00	1.203464e+00	1.216322e+00	1.374169e+00	1.453416e+00	1.351002e+00	1.224060e+00	1.235866e+00	1.305285e+00	1.276718e+00	1.268769e+00	1.286869e+00	1.326445e+00	1.312120e+00	1.278167e+00	1.304712e+00	1.354041e+00	1.361301e+00	1.356721e+00	1.358290e+00	1.352214e+00	1.287795e+00	1.203945e+00	1.195241e+00	1.206096e+00	1.202318e+00	1.320377e+00	1.297772e+00	1.311298e+00	1.287245e+00	1.273191e+00	1.321117e+00	1.151138e+00	1.068575e+00	1.196434e+00	1.226491e+00	1.242404e+00	8.497289e-01	1.305099e+00	1.297098e+00	1.336438e+00	1.318134e+00	9.417416e-01	9.008332e-01	8.183444e-01	1.009230e+00	1.047795e+00	1.429800e+00	1.404595e+00	1.431471e+00	1.386343e+00	1.363603e+00	1.335342e+00	1.330795e+00	1.220182e+00	1.262988e+00	1.263355e+00	1.269530e+00	1.346487e+00	1.305606e+00	1.609928e+00	1.335038e+00	1.333173e+00	1.320483e+00	1.300457e+00	1.312268e+00	1.298531e+00	1.297171e+00	9.362293e-01	1.087681e+00	1.047448e+00	1.235643e+00	1.248600e+00	1.302538e+00	1.316383e+00	1.299613e+00	1.354296e+00	1.273363e+00	1.305776e+00	1.107766e+00	1.093006e+00	1.408175e+00	1.390975e+00	1.384407e+00	1.357042e+00	1.357884e+00	1.351123e+00	7.816751e-01	7.527426e-01	8.673035e-01	1.261018e+00	1.271878e+00	1.302968e+00	1.290621e+00	1.270055e+00	1.343635e+00	1.363991e+00	1.261580e+00	1.277224e+00	1.257414e+00	1.240368e+00	1.209460e+00	1.234267e+00	1.209680e+00	1.221714e+00	1.226514e+00	1.038921e+00	1.189308e+00	1.279897e+00	1.327622e+00	1.339438e+00	1.333565e+00	7.446639e-01	7.136982e-01	1.233745e+00	1.393069e+00	1.418836e+00	1.333858e+00	1.342125e+00	1.282405e+00	1.284914e+00	1.237471e+00	1.338441e+00	1.206307e+00	1.154740e+00	1.203247e+00	9.099290e-01	1.439378e+00	1.435641e+00	1.296633e+00	1.292307e+00	1.292307e+00	1.204041e+00	1.214408e+00	1.273362e+00	8.369944e-01	9.138843e-01	1.149311e+00	1.348008e+00	1.379377e+00	1.406487e+00	1.319805e+00	1.329421e+00	1.451573e+00	1.457439e+00	1.236392e+00	1.223112e+00	1.065332e+00	1.296384e+00	1.294645e+00	1.149276e+00	1.123815e+00	1.158471e+00	1.187874e+00	1.143654e+00	1.140054e+00	1.197365e+00	1.287235e+00	1.261015e+00	1.443423e+00	1.458762e+00	1.448323e+00	1.468715e+00	1.143090e+00	1.061901e+00	1.129779e+00	1.354034e+00	1.359155e+00	1.363511e+00	1.331675e+00	1.335126e+00	1.234642e+00	1.213464e+00	1.227021e+00	1.217115e+00	1.228421e+00	1.294870e+00	1.289369e+00	1.264098e+00	1.277374e+00	1.228726e+00	1.237316e+00	7.686747e-01	1.234001e+00	1.227310e+00	1.265816e+00	8.942920e-01	7.360434e-01	8.537902e-01	7.042702e-01	7.820499e-01	7.660766e-01	1.308123e+00	1.354230e+00	1.350956e+00	1.336118e+00	1.344321e+00	1.338585e+00	1.191540e+00	1.153806e+00	9.978294e-01	1.015210e+00	9.507279e-01	9.845091e-01	1.159884e+00	1.179846e+00	1.184816e+00	1.436089e+00	1.504407e+00	1.527879e+00	1.526796e+00	1.298368e+00	1.331195e+00	1.292287e+00	1.270771e+00	1.255452e+00	1.245217e+00	1.243275e+00	1.134423e+00	1.129418e+00	1.178698e+00	1.156874e+00	1.460983e+00	1.451128e+00	1.296478e+00	1.348544e+00	1.361017e+00	1.082270e+00	1.006242e+00	1.160502e+00	1.177417e+00	1.250000e+00	1.228470e+00	1.266229e+00	1.209182e+00	1.275348e+00	1.422000e+00	1.402426e+00	1.406902e+00	1.163692e+00	1.163269e+00	1.200333e+00	1.241696e+00	1.337507e+00	1.332636e+00	1.213941e+00	7.729626e-01	1.097676e+00	1.087069e+00	1.035427e+00	9.289104e-01	1.364565e+00	1.356606e+00	1.155007e+00	1.155847e+00	1.196331e+00	1.285935e+00	1.337284e+00	1.206610e+00	1.266405e+00	1.175002e+00	1.267509e+00	9.160566e-01	6.416882e-01	6.916654e-01	1.216098e+00	1.204354e+00	1.200624e+00	1.182611e+00	1.179682e+00	1.279468e+00	1.304940e+00	1.449568e+00	1.236600e+00	1.217656e+00	1.218634e+00	6.273949e-01	8.859516e-01	8.221137e-01	1.418096e+00	1.369378e+00	1.251087e+00	6.209517e-01	6.474917e-01	1.447193e+00	1.450277e+00	1.162380e+00	1.120845e+00	1.105211e+00	1.250936e+00	1.255482e+00	1.290604e+00	1.297896e+00	1.253582e+00	1.263164e+00	1.230332e+00	6.404142e-01	8.781524e-01	7.354966e-01	7.964392e-01	1.473796e+00	1.469272e+00	1.445170e+00	1.339574e+00	1.368581e+00	9.897838e-01	1.379984e+00	1.394982e+00	1.315315e+00	1.243155e+00	1.243039e+00	1.289256e+00	1.284692e+00	1.257135e+00	1.224982e+00	1.194293e+00	1.292756e+00	1.135096e+00	1.130501e+00	1.192640e+00	1.186997e+00	1.360686e+00	1.184608e+00	1.245734e+00	1.125676e+00	6.279968e-01	6.078979e-01	1.349065e+00	1.343935e+00	1.491889e+00	1.484138e+00	1.364003e+00	1.368865e+00	1.369630e+00	1.275469e+00	1.245922e+00	1.312061e+00	1.424618e+00	1.245605e+00	1.288769e+00	1.241853e+00	1.250973e+00	1.255155e+00	9.377109e-01	1.276603e+00	1.274484e+00	1.282999e+00	1.284073e+00	1.430724e+00	1.436441e+00	1.427996e+00	1.297227e+00	1.288895e+00	1.312007e+00	1.235114e+00	1.295120e+00	1.347209e+00	1.286168e+00	1.311958e+00	1.214303e+00	1.346180e+00	1.166541e+00	1.129699e+00	1.242899e+00	1.210997e+00	1.208020e+00	1.214221e+00	8.981082e-01	6.980489e-01	1.477289e+00	1.465982e+00	8.421294e-01	8.509480e-01	8.243174e-01	8.124323e-01	1.650431e+00	1.616462e+00	1.445713e+00	1.146687e+00	1.092183e+00	1.369882e+00	1.114706e+00	1.249189e+00	1.362117e+00	1.347896e+00	1.401058e+00	1.271301e+00	1.284359e+00	6.463611e-01	1.408165e+00	1.432083e+00	1.422151e+00	1.386472e+00	1.014176e+00	1.024408e+00	1.298515e+00	1.269152e+00	1.238963e+00	1.159669e+00	1.188791e+00	1.234528e+00	1.237515e+00	1.232672e+00	1.237173e+00	8.630386e-01	8.818872e-01	8.944147e-01	1.219828