# vtk DataFile Version 3.0
vtk output
ASCII
DATASET UNSTRUCTURED_GRID
POINTS 198 double
0.000000e+00	0.000000e+00	0.0	3.014070e-03	3.989409e-03	0.0	6.140947e-03	8.128130e-03	0.0	1.054082e-02	1.120066e-02	0.0	1.516657e-02	1.431233e-02	0.0	2.049405e-02	1.654967e-02	0.0	2.602528e-02	1.883143e-02	0.0	3.192485e-02	2.072609e-02	0.0	3.804248e-02	2.264524e-02	0.0	4.443450e-02	2.441600e-02	0.0	5.106158e-02	2.617537e-02	0.0	5.794873e-02	2.784326e-02	0.0	6.508692e-02	2.945649e-02	0.0	7.247513e-02	3.103578e-02	0.0	8.011239e-02	3.259439e-02	0.0	8.797648e-02	3.425098e-02	0.0	9.604099e-02	3.613961e-02	0.0	1.042844e-01	3.832071e-02	0.0	1.127084e-01	4.079599e-02	0.0	1.212940e-01	4.358774e-02	0.0	1.300502e-01	4.667238e-02	0.0	1.390519e-01	4.982061e-02	0.0	1.483152e-01	5.298700e-02	0.0	1.578174e-01	5.623508e-02	0.0	1.677222e-01	5.901586e-02	0.0	1.779299e-01	6.165580e-02	0.0	1.884192e-01	6.413567e-02	0.0	1.993792e-01	6.543175e-02	0.0	2.105789e-01	6.675620e-02	0.0	2.220617e-01	6.717657e-02	0.0	2.338077e-01	6.699003e-02	0.0	2.457790e-01	6.675931e-02	0.0	2.579511e-01	6.601195e-02	0.0	2.703365e-01	6.525149e-02	0.0	2.829389e-01	6.474426e-02	0.0	2.957481e-01	6.445109e-02	0.0	3.087451e-01	6.419400e-02	0.0	3.218945e-01	6.509725e-02	0.0	3.352123e-01	6.601207e-02	0.0	3.486684e-01	6.716297e-02	0.0	3.622528e-01	6.853057e-02	0.0	3.759719e-01	6.989549e-02	0.0	3.898668e-01	7.051758e-02	0.0	4.038699e-01	7.114452e-02	0.0	4.179445e-01	7.075595e-02	0.0	4.320796e-01	6.947497e-02	0.0	4.462695e-01	6.811126e-02	0.0	4.602735e-01	6.515921e-02	0.0	4.743141e-01	6.219944e-02	0.0	4.883495e-01	5.911125e-02	0.0	5.023668e-01	5.590574e-02	0.0	5.163768e-01	5.270191e-02	0.0	5.305789e-01	5.066048e-02	0.0	5.447489e-01	4.865057e-02	0.0	5.589340e-01	4.762856e-02	0.0	5.731268e-01	4.769644e-02	0.0	5.872386e-01	4.776392e-02	0.0	6.012174e-01	4.879563e-02	0.0	6.150875e-01	4.983092e-02	0.0	6.288498e-01	5.062489e-02	0.0	6.424923e-01	5.116608e-02	0.0	6.559885e-01	5.170148e-02	0.0	6.692781e-01	5.047395e-02	0.0	6.823985e-01	4.921739e-02	0.0	6.952296e-01	4.727812e-02	0.0	7.077358e-01	4.449298e-02	0.0	7.200490e-01	4.175083e-02	0.0	7.320497e-01	3.860000e-02	0.0	7.438268e-01	3.543470e-02	0.0	7.554309e-01	3.249114e-02	0.0	7.669041e-01	2.996734e-02	0.0	7.781503e-01	2.749348e-02	0.0	7.893395e-01	2.614649e-02	0.0	8.003143e-01	2.498314e-02	0.0	8.110785e-01	2.433916e-02	0.0	8.216180e-01	2.404634e-02	0.0	8.319087e-01	2.380866e-02	0.0	8.419496e-01	2.365572e-02	0.0	8.517351e-01	2.343745e-02	0.0	8.612496e-01	2.279017e-02	0.0	8.705117e-01	2.216005e-02	0.0	8.794853e-01	2.116153e-02	0.0	8.881994e-01	2.008668e-02	0.0	8.966520e-01	1.894593e-02	0.0	9.048314e-01	1.764214e-02	0.0	9.127686e-01	1.637698e-02	0.0	9.204487e-01	1.504610e-02	0.0	9.278890e-01	1.373376e-02	0.0	9.350942e-01	1.244921e-02	0.0	9.420662e-01	1.118191e-02	0.0	9.488130e-01	9.955135e-03	0.0	9.553334e-01	8.739398e-03	0.0	9.616371e-01	7.564063e-03	0.0	9.677241e-01	6.404956e-03	0.0	9.736025e-01	5.281264e-03	0.0	9.792733e-01	4.172112e-03	0.0	9.847440e-01	3.092195e-03	0.0	9.900180e-01	2.033111e-03	0.0	9.950996e-01	9.922691e-04	0.0	1.000000e+00	0.000000e+00	0.0	9.950063e-01	2.428674e-04	0.0	9.898219e-01	4.339217e-04	0.0	9.844428e-01	5.733868e-04	0.0	9.788648e-01	6.691112e-04	0.0	9.730835e-01	7.408866e-04	0.0	9.670940e-01	7.562628e-04	0.0	9.608920e-01	7.490715e-04	0.0	9.544732e-01	6.776613e-04	0.0	9.478329e-01	5.900575e-04	0.0	9.409684e-01	4.081895e-04	0.0	9.338738e-01	2.202258e-04	0.0	9.265486e-01	-7.054823e-05	0.0	9.189865e-01	-3.925662e-04	0.0	9.111847e-01	-7.502821e-04	0.0	9.031408e-01	-1.161549e-03	0.0	8.948501e-01	-1.585430e-03	0.0	8.863091e-01	-1.995604e-03	0.0	8.775166e-01	-2.414552e-03	0.0	8.684691e-01	-2.789616e-03	0.0	8.591646e-01	-3.102646e-03	0.0	8.496052e-01	-3.417284e-03	0.0	8.397886e-01	-3.663991e-03	0.0	8.297174e-01	-3.917095e-03	0.0	8.194070e-01	-4.502631e-03	0.0	8.088477e-01	-5.166004e-03	0.0	7.980940e-01	-6.378246e-03	0.0	7.871296e-01	-7.954560e-03	0.0	7.759921e-01	-9.916676e-03	0.0	7.647636e-01	-1.266613e-02	0.0	7.533072e-01	-1.547139e-02	0.0	7.417499e-01	-1.878362e-02	0.0	7.299963e-01	-2.222348e-02	0.0	7.180114e-01	-2.563741e-02	0.0	7.057699e-01	-2.890656e-02	0.0	6.933354e-01	-3.222724e-02	0.0	6.805493e-01	-3.484575e-02	0.0	6.675156e-01	-3.718417e-02	0.0	6.542896e-01	-3.936679e-02	0.0	6.407676e-01	-4.052695e-02	0.0	6.270985e-01	-4.169974e-02	0.0	6.132835e-01	-4.274600e-02	0.0	5.993401e-01	-4.372438e-02	0.0	5.853015e-01	-4.484798e-02	0.0	5.712478e-01	-4.675936e-02	0.0	5.571130e-01	-4.868176e-02	0.0	5.431233e-01	-5.169186e-02	0.0	5.291953e-01	-5.528891e-02	0.0	5.152513e-01	-5.896783e-02	0.0	5.014628e-01	-6.327530e-02	0.0	4.876672e-01	-6.758504e-02	0.0	4.737728e-01	-7.152013e-02	0.0	4.598043e-01	-7.511151e-02	0.0	4.458723e-01	-7.869348e-02	0.0	4.316108e-01	-8.008450e-02	0.0	4.174094e-01	-8.142926e-02	0.0	4.032780e-01	-8.155086e-02	0.0	3.892308e-01	-8.048850e-02	0.0	3.752959e-01	-7.940763e-02	0.0	3.615856e-01	-7.741113e-02	0.0	3.480094e-01	-7.543416e-02	0.0	3.345444e-01	-7.375752e-02	0.0	3.212058e-01	-7.235354e-02	0.0	3.080354e-01	-7.099815e-02	0.0	2.949751e-01	-7.112317e-02	0.0	2.821054e-01	-7.124636e-02	0.0	2.694455e-01	-7.167328e-02	0.0	2.570026e-01	-7.237121e-02	0.0	2.447750e-01	-7.305022e-02	0.0	2.327513e-01	-7.298915e-02	0.0	2.209567e-01	-7.292925e-02	0.0	2.094857e-01	-7.189729e-02	0.0	1.983428e-01	-6.989853e-02	0.0	1.874396e-01	-6.794278e-02	0.0	1.771950e-01	-6.445727e-02	0.0	1.672155e-01	-6.094305e-02	0.0	1.575390e-01	-5.734568e-02	0.0	1.482803e-01	-5.337481e-02	0.0	1.392556e-01	-4.950431e-02	0.0	1.303986e-01	-4.589763e-02	0.0	1.217180e-01	-4.253317e-02	0.0	1.132746e-01	-3.926059e-02	0.0	1.048106e-01	-3.687052e-02	0.0	9.654112e-02	-3.469465e-02	0.0	8.846783e-02	-3.278867e-02	0.0	8.053356e-02	-3.140277e-02	0.0	7.283994e-02	-3.005890e-02	0.0	6.536155e-02	-2.889250e-02	0.0	5.811599e-02	-2.777543e-02	0.0	5.116374e-02	-2.636656e-02	0.0	4.446381e-02	-2.486138e-02	0.0	3.810746e-02	-2.296426e-02	0.0	3.201970e-02	-2.092816e-02	0.0	2.631345e-02	-1.850660e-02	0.0	2.086022e-02	-1.603359e-02	0.0	1.573042e-02	-1.336636e-02	0.0	1.088788e-02	-1.060233e-02	0.0	6.356969e-03	-7.714211e-03	0.0	2.406159e-03	-4.351799e-03	0.0	
CELLS 198	594
2	0	1	2	138	139	2	139	140	2	140	141	2	141	142	2	142	143	2	143	144	2	144	145	2	145	146	2	146	147	2	147	148	2	148	149	2	149	150	2	150	151	2	151	152	2	152	153	2	153	154	2	154	155	2	155	156	2	156	157	2	157	158	2	158	159	2	159	160	2	160	161	2	161	162	2	162	163	2	163	164	2	164	165	2	165	166	2	166	167	2	167	168	2	168	169	2	169	170	2	170	171	2	171	172	2	172	173	2	173	174	2	174	175	2	175	176	2	176	177	2	177	178	2	178	179	2	179	180	2	180	181	2	181	182	2	182	183	2	183	184	2	184	185	2	185	186	2	186	187	2	187	188	2	188	189	2	189	190	2	190	191	2	191	192	2	192	193	2	193	194	2	194	195	2	195	196	2	196	197	2	197	0	2	1	2	2	2	3	2	3	4	2	4	5	2	5	6	2	6	7	2	7	8	2	8	9	2	9	10	2	10	11	2	11	12	2	12	13	2	13	14	2	14	15	2	15	16	2	16	17	2	17	18	2	18	19	2	19	20	2	20	21	2	21	22	2	22	23	2	23	24	2	24	25	2	25	26	2	26	27	2	27	28	2	28	29	2	29	30	2	30	31	2	31	32	2	32	33	2	33	34	2	34	35	2	35	36	2	36	37	2	37	38	2	38	39	2	39	40	2	40	41	2	41	42	2	42	43	2	43	44	2	44	45	2	45	46	2	46	47	2	47	48	2	48	49	2	49	50	2	50	51	2	51	52	2	52	53	2	53	54	2	54	55	2	55	56	2	56	57	2	57	58	2	58	59	2	59	60	2	60	61	2	61	62	2	62	63	2	63	64	2	64	65	2	65	66	2	66	67	2	67	68	2	68	69	2	69	70	2	70	71	2	71	72	2	72	73	2	73	74	2	74	75	2	75	76	2	76	77	2	77	78	2	78	79	2	79	80	2	80	81	2	81	82	2	82	83	2	83	84	2	84	85	2	85	86	2	86	87	2	87	88	2	88	89	2	89	90	2	90	91	2	91	92	2	92	93	2	93	94	2	94	95	2	95	96	2	96	97	2	97	98	2	98	99	2	99	100	2	100	101	2	101	102	2	102	103	2	103	104	2	104	105	2	105	106	2	106	107	2	107	108	2	108	109	2	109	110	2	110	111	2	111	112	2	112	113	2	113	114	2	114	115	2	115	116	2	116	117	2	117	118	2	118	119	2	119	120	2	120	121	2	121	122	2	122	123	2	123	124	2	124	125	2	125	126	2	126	127	2	127	128	2	128	129	2	129	130	2	130	131	2	131	132	2	132	133	2	133	134	2	134	135	2	135	136	2	136	137	2	137	138	
CELL_TYPES 198
3	3	3	3	3	3	3	3	3	3	3	3	3	3	3	3	3	3	3	3	3	3	3	3	3	3	3	3	3	3	3	3	3	3	3	3	3	3	3	3	3	3	3	3	3	3	3	3	3	3	3	3	3	3	3	3	3	3	3	3	3	3	3	3	3	3	3	3	3	3	3	3	3	3	3	3	3	3	3	3	3	3	3	3	3	3	3	3	3	3	3	3	3	3	3	3	3	3	3	3	3	3	3	3	3	3	3	3	3	3	3	3	3	3	3	3	3	3	3	3	3	3	3	3	3	3	3	3	3	3	3	3	3	3	3	3	3	3	3	3	3	3	3	3	3	3	3	3	3	3	3	3	3	3	3	3	3	3	3	3	3	3	3	3	3	3	3	3	3	3	3	3	3	3	3	3	3	3	3	3	3	3	3	3	3	3	3	3	3	3	3	3	3	3	3	3	3	3	
POINT_DATA 198

SCALARS Density double 1
LOOKUP_TABLE default
1.560673e+00	1.272834e+00	1.221081e+00	1.092825e+00	1.034774e+00	9.982332e-01	1.040505e+00	1.073821e+00	1.107725e+00	1.123248e+00	1.141235e+00	1.157367e+00	1.183311e+00	1.210133e+00	1.240082e+00	1.266777e+00	1.282921e+00	1.284545e+00	1.277555e+00	1.259529e+00	1.223684e+00	1.177054e+00	1.135834e+00	1.067881e+00	9.999093e-01	9.612194e-01	8.573621e-01	7.722663e-01	7.203060e-01	6.413722e-01	6.108307e-01	5.936054e-01	5.765913e-01	5.930094e-01	6.273683e-01	6.479957e-01	7.178161e-01	7.989663e-01	8.245082e-01	8.614235e-01	8.850208e-01	8.489468e-01	8.117793e-01	7.635605e-01	6.840759e-01	6.457894e-01	5.800748e-01	5.158053e-01	5.559723e-01	7.551573e-01	1.097066e+00	1.197713e+00	1.208646e+00	1.210438e+00	1.222814e+00	1.205324e+00	1.188797e+00	1.171417e+00	1.129929e+00	1.091957e+00	1.064228e+00	1.008464e+00	9.845613e-01	1.018270e+00	1.036790e+00	1.082495e+00	1.123838e+00	1.151255e+00	1.185545e+00	1.209372e+00	1.220747e+00	1.237640e+00	1.241639e+00	1.233068e+00	1.233009e+00	1.219855e+00	1.206770e+00	1.195842e+00	1.178539e+00	1.175195e+00	1.174708e+00	1.172984e+00	1.183552e+00	1.186304e+00	1.194135e+00	1.202489e+00	1.208006e+00	1.216164e+00	1.221727e+00	1.227235e+00	1.232500e+00	1.237419e+00	1.242629e+00	1.247460e+00	1.252850e+00	1.258380e+00	1.263786e+00	1.272842e+00	1.276076e+00	1.276596e+00	1.345250e+00	1.332617e+00	1.330914e+00	1.333180e+00	1.334038e+00	1.334757e+00	1.335113e+00	1.336242e+00	1.336137e+00	1.336565e+00	1.336794e+00	1.335170e+00	1.334411e+00	1.333871e+00	1.331829e+00	1.331710e+00	1.331106e+00	1.331138e+00	1.333526e+00	1.336290e+00	1.339729e+00	1.349530e+00	1.354399e+00	1.360204e+00	1.365989e+00	1.363362e+00	1.367234e+00	1.358637e+00	1.349124e+00	1.339562e+00	1.319529e+00	1.299392e+00	1.282797e+00	1.254195e+00	1.230109e+00	1.224549e+00	1.202617e+00	1.205666e+00	1.226755e+00	1.237338e+00	1.255836e+00	1.279281e+00	1.285458e+00	1.295483e+00	1.302958e+00	1.285177e+00	1.274662e+00	1.257753e+00	1.244314e+00	1.056694e+00	7.203977e-01	6.000025e-01	6.621375e-01	7.648841e-01	8.339466e-01	9.518106e-01	1.026268e+00	1.100301e+00	1.192760e+00	1.239867e+00	1.265925e+00	1.314902e+00	1.321910e+00	1.291896e+00	1.282371e+00	1.247902e+00	1.186855e+00	1.083522e+00	9.054614e-01	8.561633e-01	9.207153e-01	9.521054e-01	1.046039e+00	1.176478e+00	1.223832e+00	1.281738e+00	1.343608e+00	1.383963e+00	1.406606e+00	1.444558e+00	1.463024e+00	1.458880e+00	1.469958e+00	1.464426e+00	1.454959e+00	1.450321e+00	1.429939e+00	1.418492e+00	1.412325e+00	1.414961e+00	1.428808e+00	1.451830e+00	1.484639e+00	1.510421e+00	1.544197e+00	1.579315e+00	1.605515e+00	1.706113e+00	
VECTORS Momentum double
1.879113e+01	1.998640e+02	0.0	1.606655e+02	2.062906e+02	0.0	2.147260e+02	2.070666e+02	0.0	2.534911e+02	1.743044e+02	0.0	2.784748e+02	1.505217e+02	0.0	2.864361e+02	1.187612e+02	0.0	2.953620e+02	1.074854e+02	0.0	2.979272e+02	9.451719e+01	0.0	3.001336e+02	8.858078e+01	0.0	3.012749e+02	8.176994e+01	0.0	3.017375e+02	7.655372e+01	0.0	3.007506e+02	7.017002e+01	0.0	3.007091e+02	6.591107e+01	0.0	2.977003e+02	6.204734e+01	0.0	2.926011e+02	6.060896e+01	0.0	2.864029e+02	6.363375e+01	0.0	2.828845e+02	7.053303e+01	0.0	2.814475e+02	7.844264e+01	0.0	2.820995e+02	8.721337e+01	0.0	2.852229e+02	9.679369e+01	0.0	2.911280e+02	1.023475e+02	0.0	2.967338e+02	1.025206e+02	0.0	3.037084e+02	1.042445e+02	0.0	3.103081e+02	9.688596e+01	0.0	3.120162e+02	8.339745e+01	0.0	3.174966e+02	7.990968e+01	0.0	3.109333e+02	5.659558e+01	0.0	2.999831e+02	3.575195e+01	0.0	2.941473e+02	2.344714e+01	0.0	2.752832e+02	3.254111e+00	0.0	2.687299e+02	-5.191072e+00	0.0	2.657366e+02	-1.104011e+01	0.0	2.599630e+02	-1.670212e+01	0.0	2.650095e+02	-1.468328e+01	0.0	2.750618e+02	-8.977455e+00	0.0	2.794067e+02	-6.812210e+00	0.0	2.947617e+02	6.386354e+00	0.0	3.113921e+02	2.227782e+01	0.0	3.135446e+02	2.446321e+01	0.0	3.175092e+02	2.953372e+01	0.0	3.226198e+02	3.291565e+01	0.0	3.168218e+02	2.376350e+01	0.0	3.125216e+02	1.443203e+01	0.0	3.062930e+02	3.500911e+00	0.0	2.878627e+02	-1.674434e+01	0.0	2.790762e+02	-2.559440e+01	0.0	2.599402e+02	-3.874506e+01	0.0	2.353074e+02	-4.871714e+01	0.0	2.405614e+02	-5.061033e+01	0.0	2.343967e+02	-5.346592e+01	0.0	2.180225e+02	-4.801585e+01	0.0	2.116201e+02	-3.974273e+01	0.0	2.049323e+02	-2.938790e+01	0.0	1.972411e+02	-2.149026e+01	0.0	1.973588e+02	-6.329101e+00	0.0	2.019630e+02	1.252208e+00	0.0	2.079850e+02	8.062388e+00	0.0	2.208134e+02	1.662775e+01	0.0	2.341173e+02	1.562118e+01	0.0	2.432964e+02	1.152930e+01	0.0	2.567043e+02	1.078481e+01	0.0	2.650361e+02	-6.459572e+00	0.0	2.597548e+02	-2.594546e+01	0.0	2.593784e+02	-3.260963e+01	0.0	2.501843e+02	-4.616592e+01	0.0	2.378866e+02	-5.271369e+01	0.0	2.277256e+02	-5.486074e+01	0.0	2.138384e+02	-5.677744e+01	0.0	2.022440e+02	-5.274902e+01	0.0	1.942851e+02	-4.591035e+01	0.0	1.857624e+02	-4.086654e+01	0.0	1.808472e+02	-3.057528e+01	0.0	1.820096e+02	-2.053635e+01	0.0	1.840906e+02	-1.534055e+01	0.0	1.892912e+02	-8.186533e+00	0.0	1.962104e+02	-4.957024e+00	0.0	2.024750e+02	-3.957304e+00	0.0	2.104887e+02	-3.990340e+00	0.0	2.152982e+02	-9.830419e+00	0.0	2.169940e+02	-1.482367e+01	0.0	2.178757e+02	-1.941621e+01	0.0	2.151390e+02	-2.539049e+01	0.0	2.130569e+02	-2.738358e+01	0.0	2.100107e+02	-3.084215e+01	0.0	2.059092e+02	-3.281057e+01	0.0	2.024330e+02	-3.361234e+01	0.0	1.984500e+02	-3.473382e+01	0.0	1.948188e+02	-3.452273e+01	0.0	1.914206e+02	-3.445278e+01	0.0	1.881301e+02	-3.419809e+01	0.0	1.848687e+02	-3.401013e+01	0.0	1.815153e+02	-3.383874e+01	0.0	1.782972e+02	-3.358289e+01	0.0	1.749649e+02	-3.338086e+01	0.0	1.714633e+02	-3.310775e+01	0.0	1.675075e+02	-3.285747e+01	0.0	1.625035e+02	-3.237693e+01	0.0	1.569596e+02	-3.170673e+01	0.0	1.459534e+02	-3.037095e+01	0.0	1.514050e+02	-4.400459e+00	0.0	2.024581e+02	-9.714871e+00	0.0	2.007083e+02	-6.709570e+00	0.0	1.989068e+02	-4.210441e+00	0.0	1.990077e+02	-2.940995e+00	0.0	1.986078e+02	-1.487861e+00	0.0	1.977957e+02	-1.138575e-01	0.0	1.972384e+02	1.220763e+00	0.0	1.967231e+02	2.385806e+00	0.0	1.962567e+02	3.930036e+00	0.0	1.962424e+02	5.174905e+00	0.0	1.961623e+02	6.453984e+00	0.0	1.966122e+02	8.073758e+00	0.0	1.969186e+02	8.729609e+00	0.0	1.976223e+02	9.546531e+00	0.0	1.984424e+02	1.015913e+01	0.0	1.991982e+02	9.853242e+00	0.0	1.991659e+02	9.535990e+00	0.0	1.992226e+02	8.862708e+00	0.0	1.983438e+02	7.417538e+00	0.0	1.967002e+02	6.578533e+00	0.0	1.941373e+02	5.744580e+00	0.0	1.893802e+02	4.768508e+00	0.0	1.841654e+02	7.552366e+00	0.0	1.800323e+02	1.078959e+01	0.0	1.760818e+02	1.541267e+01	0.0	1.741124e+02	2.238003e+01	0.0	1.740482e+02	2.768724e+01	0.0	1.746536e+02	3.682321e+01	0.0	1.813341e+02	4.436476e+01	0.0	1.878845e+02	4.988175e+01	0.0	1.958494e+02	5.676123e+01	0.0	2.073695e+02	5.983319e+01	0.0	2.177176e+02	5.987079e+01	0.0	2.267012e+02	6.044944e+01	0.0	2.389332e+02	5.615069e+01	0.0	2.461942e+02	4.699372e+01	0.0	2.480766e+02	4.266532e+01	0.0	2.524468e+02	3.111136e+01	0.0	2.485533e+02	2.114512e+01	0.0	2.411063e+02	1.962693e+01	0.0	2.354918e+02	1.702179e+01	0.0	2.281680e+02	1.684230e+01	0.0	2.205425e+02	2.391939e+01	0.0	2.172835e+02	2.932649e+01	0.0	2.142231e+02	3.731414e+01	0.0	2.145521e+02	5.097260e+01	0.0	2.222291e+02	5.795471e+01	0.0	2.294577e+02	6.501185e+01	0.0	2.460526e+02	7.579546e+01	0.0	2.544719e+02	7.475733e+01	0.0	2.568203e+02	7.100919e+01	0.0	2.462491e+02	6.203736e+01	0.0	2.802677e+02	4.847079e+01	0.0	3.028462e+02	2.850469e+01	0.0	3.123050e+02	1.517337e+01	0.0	3.285954e+02	-1.208721e+01	0.0	3.250842e+02	-2.499972e+01	0.0	3.219360e+02	-3.596921e+01	0.0	3.165399e+02	-4.629668e+01	0.0	3.057226e+02	-4.128611e+01	0.0	2.991150e+02	-3.439083e+01	0.0	2.942440e+02	-3.116474e+01	0.0	2.871363e+02	-1.291070e+01	0.0	2.893986e+02	3.302809e+00	0.0	2.967103e+02	6.150991e+00	0.0	2.995080e+02	1.359115e+01	0.0	3.076035e+02	1.702286e+01	0.0	3.147608e+02	7.098084e+00	0.0	3.131799e+02	-1.152402e+00	0.0	3.147261e+02	-1.552058e+01	0.0	3.277999e+02	-4.461807e+01	0.0	3.188018e+02	-5.656141e+01	0.0	3.211710e+02	-8.402267e+01	0.0	3.134389e+02	-1.100338e+02	0.0	3.005471e+02	-1.086592e+02	0.0	2.897258e+02	-1.162448e+02	0.0	2.752876e+02	-1.183524e+02	0.0	2.626592e+02	-1.095815e+02	0.0	2.546647e+02	-1.010368e+02	0.0	2.461856e+02	-9.574179e+01	0.0	2.395926e+02	-8.007997e+01	0.0	2.404856e+02	-6.535588e+01	0.0	2.415444e+02	-6.046094e+01	0.0	2.425757e+02	-4.970011e+01	0.0	2.479738e+02	-4.327439e+01	0.0	2.528690e+02	-4.203407e+01	0.0	2.576201e+02	-3.994422e+01	0.0	2.626712e+02	-4.670799e+01	0.0	2.634413e+02	-5.619685e+01	0.0	2.591421e+02	-6.742338e+01	0.0	2.500802e+02	-7.908123e+01	0.0	2.355774e+02	-8.912779e+01	0.0	2.158021e+02	-9.472498e+01	0.0	1.927831e+02	-9.314848e+01	0.0	1.640220e+02	-8.904552e+01	0.0	1.273010e+02	-7.752993e+01	0.0	7.910750e+01	-5.862675e+01	0.0	-7.593354e+00	2.436558e+00	0.0	
SCALARS Energy double 1
LOOKUP_TABLE default
3.421379e+05	2.837016e+05	2.752154e+05	2.493627e+05	2.382361e+05	2.302379e+05	2.392088e+05	2.458668e+05	2.528514e+05	2.559829e+05	2.596200e+05	2.627602e+05	2.680555e+05	2.733474e+05	2.792116e+05	2.844216e+05	2.876803e+05	2.880616e+05	2.868012e+05	2.834324e+05	2.764870e+05	2.672195e+05	2.592861e+05	2.457190e+05	2.317441e+05	2.243817e+05	2.025713e+05	1.843576e+05	1.734752e+05	1.559702e+05	1.493610e+05	1.457537e+05	1.418532e+05	1.455711e+05	1.532983e+05	1.577462e+05	1.729659e+05	1.906910e+05	1.959410e+05	2.036724e+05	2.089023e+05	2.010894e+05	1.932679e+05	1.831411e+05	1.657129e+05	1.574203e+05	1.428058e+05	1.278505e+05	1.360965e+05	1.746986e+05	2.444008e+05	2.652673e+05	2.671743e+05	2.671428e+05	2.697358e+05	2.662224e+05	2.630098e+05	2.600147e+05	2.519981e+05	2.445644e+05	2.396510e+05	2.286531e+05	2.234008e+05	2.304108e+05	2.337574e+05	2.425860e+05	2.506914e+05	2.557366e+05	2.623627e+05	2.669735e+05	2.689663e+05	2.722790e+05	2.731231e+05	2.713580e+05	2.715509e+05	2.690506e+05	2.665564e+05	2.646263e+05	2.612097e+05	2.606047e+05	2.605671e+05	2.600901e+05	2.622358e+05	2.626889e+05	2.641625e+05	2.657756e+05	2.667695e+05	2.683368e+05	2.693684e+05	2.703956e+05	2.713767e+05	2.722839e+05	2.732621e+05	2.741588e+05	2.751717e+05	2.762016e+05	2.771695e+05	2.789078e+05	2.792193e+05	2.794114e+05	2.960953e+05	2.933159e+05	2.928720e+05	2.933596e+05	2.935252e+05	2.936441e+05	2.936969e+05	2.939169e+05	2.938758e+05	2.939680e+05	2.940151e+05	2.936895e+05	2.935413e+05	2.934572e+05	2.930569e+05	2.930629e+05	2.929319e+05	2.929399e+05	2.934102e+05	2.939301e+05	2.945574e+05	2.964594e+05	2.972998e+05	2.983916e+05	2.994972e+05	2.988890e+05	2.997450e+05	2.979854e+05	2.962627e+05	2.945288e+05	2.906559e+05	2.869089e+05	2.838665e+05	2.782561e+05	2.737590e+05	2.728856e+05	2.683274e+05	2.691279e+05	2.732816e+05	2.750866e+05	2.786833e+05	2.832716e+05	2.842347e+05	2.862410e+05	2.877452e+05	2.841105e+05	2.823359e+05	2.792179e+05	2.774534e+05	2.386658e+05	1.703055e+05	1.454712e+05	1.610460e+05	1.831551e+05	1.975979e+05	2.226385e+05	2.373551e+05	2.522368e+05	2.709206e+05	2.798443e+05	2.847599e+05	2.946630e+05	2.955988e+05	2.894242e+05	2.879079e+05	2.809118e+05	2.688065e+05	2.480429e+05	2.118341e+05	2.022363e+05	2.166484e+05	2.222042e+05	2.418966e+05	2.685319e+05	2.773236e+05	2.888208e+05	3.009231e+05	3.084884e+05	3.126615e+05	3.201685e+05	3.235043e+05	3.224557e+05	3.248020e+05	3.235582e+05	3.217454e+05	3.209906e+05	3.168879e+05	3.147841e+05	3.136177e+05	3.140889e+05	3.167310e+05	3.210878e+05	3.273050e+05	3.318873e+05	3.380987e+05	3.445016e+05	3.490363e+05	3.699947e+05	
SCALARS Pressure double 1
LOOKUP_TABLE default
1.316909e+05	1.027378e+05	9.551158e+04	8.242487e+04	7.592693e+04	7.283116e+04	7.669432e+04	8.015112e+04	8.345989e+04	8.504119e+04	8.686534e+04	8.862274e+04	9.120438e+04	9.405546e+04	9.728417e+04	1.001789e+05	1.018214e+05	1.019334e+05	1.010715e+05	9.896741e+04	9.503023e+04	9.014067e+04	8.555938e+04	7.849552e+04	7.183388e+04	6.744981e+04	5.772854e+04	5.010663e+04	4.521359e+04	3.875392e+04	3.609051e+04	3.446819e+04	3.320304e+04	3.446976e+04	3.717415e+04	3.898889e+04	4.496700e+04	5.187954e+04	5.438423e+04	5.786052e+04	5.979491e+04	5.665552e+04	5.319273e+04	4.868007e+04	4.197635e+04	3.864485e+04	3.330812e+04	2.875079e+04	3.269969e+04	5.457128e+04	8.867441e+04	9.836507e+04	9.977732e+04	1.003527e+05	1.015171e+05	9.972056e+04	9.791544e+04	9.563397e+04	9.105439e+04	8.695974e+04	8.345453e+04	7.752204e+04	7.551744e+04	7.874143e+04	8.101760e+04	8.606552e+04	9.051205e+04	9.379078e+04	9.757544e+04	1.001985e+05	1.016594e+05	1.034753e+05	1.038452e+05	1.030083e+05	1.027975e+05	1.013042e+05	9.982559e+04	9.843792e+04	9.660127e+04	9.619110e+04	9.608070e+04	9.603431e+04	9.709692e+04	9.747956e+04	9.838354e+04	9.930663e+04	9.998783e+04	1.008971e+05	1.015547e+05	1.021997e+05	1.028171e+05	1.034033e+05	1.040068e+05	1.045769e+05	1.052005e+05	1.058495e+05	1.065228e+05	1.075341e+05	1.082044e+05	1.081702e+05	1.123301e+05	1.112738e+05	1.112008e+05	1.114012e+05	1.114961e+05	1.115954e+05	1.116509e+05	1.117735e+05	1.117826e+05	1.118205e+05	1.118428e+05	1.116755e+05	1.115933e+05	1.115134e+05	1.112937e+05	1.112514e+05	1.111991e+05	1.112009e+05	1.114556e+05	1.117748e+05	1.121916e+05	1.132652e+05	1.139031e+05	1.145738e+05	1.152245e+05	1.150350e+05	1.153546e+05	1.145042e+05	1.133387e+05	1.121696e+05	1.099603e+05	1.075937e+05	1.055975e+05	1.025243e+05	9.970901e+04	9.889413e+04	9.679355e+04	9.691896e+04	9.916783e+04	1.005760e+05	1.025954e+05	1.051252e+05	1.060373e+05	1.070749e+05	1.078401e+05	1.060763e+05	1.046585e+05	1.026429e+05	1.003270e+05	8.215223e+04	4.841117e+04	3.669282e+04	3.998257e+04	4.906795e+04	5.559289e+04	6.633638e+04	7.422529e+04	8.182056e+04	9.120789e+04	9.658595e+04	9.958201e+04	1.045485e+05	1.057403e+05	1.028023e+05	1.014269e+05	9.795816e+04	9.152913e+04	8.092039e+04	6.306890e+04	5.769956e+04	6.288577e+04	6.686022e+04	7.568664e+04	8.865313e+04	9.423838e+04	1.003218e+05	1.070036e+05	1.116902e+05	1.143917e+05	1.184072e+05	1.206777e+05	1.204683e+05	1.214853e+05	1.210496e+05	1.199881e+05	1.193349e+05	1.172493e+05	1.158779e+05	1.151719e+05	1.155009e+05	1.170629e+05	1.196957e+05	1.234396e+05	1.266848e+05	1.307281e+05	1.349872e+05	1.384068e+05	1.479904e+05	
SCALARS Temperature double 1
LOOKUP_TABLE default
2.939505e+02	2.811829e+02	2.724845e+02	2.627472e+02	2.556117e+02	2.541649e+02	2.567729e+02	2.600208e+02	2.624679e+02	2.637450e+02	2.651561e+02	2.667500e+02	2.685017e+02	2.707581e+02	2.732889e+02	2.754903e+02	2.764836e+02	2.764378e+02	2.756002e+02	2.737250e+02	2.705346e+02	2.667808e+02	2.624116e+02	2.560662e+02	2.502644e+02	2.444492e+02	2.345615e+02	2.260260e+02	2.186665e+02	2.104921e+02	2.058270e+02	2.022791e+02	2.006043e+02	2.024916e+02	2.064186e+02	2.096038e+02	2.182283e+02	2.262028e+02	2.297780e+02	2.339893e+02	2.353646e+02	2.324835e+02	2.282678e+02	2.220947e+02	2.137621e+02	2.084640e+02	2.000306e+02	1.941754e+02	2.048900e+02	2.517428e+02	2.815762e+02	2.861003e+02	2.875829e+02	2.888132e+02	2.892074e+02	2.882115e+02	2.869286e+02	2.844009e+02	2.807245e+02	2.774234e+02	2.731778e+02	2.677905e+02	2.671990e+02	2.693834e+02	2.722194e+02	2.769705e+02	2.805646e+02	2.838043e+02	2.867165e+02	2.886234e+02	2.901028e+02	2.912546e+02	2.913544e+02	2.910150e+02	2.904334e+02	2.893007e+02	2.881693e+02	2.867603e+02	2.855414e+02	2.851380e+02	2.849289e+02	2.852099e+02	2.857911e+02	2.862516e+02	2.870115e+02	2.876918e+02	2.883423e+02	2.890127e+02	2.895716e+02	2.901031e+02	2.906088e+02	2.911037e+02	2.915752e+02	2.920380e+02	2.925155e+02	2.930269e+02	2.936294e+02	2.943079e+02	2.953920e+02	2.951783e+02	2.908865e+02	2.908828e+02	2.910638e+02	2.910928e+02	2.911534e+02	2.912558e+02	2.913227e+02	2.913964e+02	2.914431e+02	2.914484e+02	2.914567e+02	2.913747e+02	2.913256e+02	2.912349e+02	2.911068e+02	2.910222e+02	2.910174e+02	2.910151e+02	2.911594e+02	2.913892e+02	2.917251e+02	2.923779e+02	2.929674e+02	2.934348e+02	2.938517e+02	2.939337e+02	2.939156e+02	2.935948e+02	2.926556e+02	2.917041e+02	2.903002e+02	2.884543e+02	2.867651e+02	2.847686e+02	2.823716e+02	2.813357e+02	2.803817e+02	2.800348e+02	2.816070e+02	2.831630e+02	2.845937e+02	2.862670e+02	2.873632e+02	2.879295e+02	2.883236e+02	2.875316e+02	2.860288e+02	2.842914e+02	2.808784e+02	2.708323e+02	2.341012e+02	2.130387e+02	2.103550e+02	2.234769e+02	2.322263e+02	2.427905e+02	2.519542e+02	2.590487e+02	2.663849e+02	2.713747e+02	2.740332e+02	2.769840e+02	2.786565e+02	2.772081e+02	2.755306e+02	2.734579e+02	2.686532e+02	2.601660e+02	2.426474e+02	2.347720e+02	2.379345e+02	2.446319e+02	2.520587e+02	2.625069e+02	2.682480e+02	2.726632e+02	2.774319e+02	2.811389e+02	2.833039e+02	2.855442e+02	2.873465e+02	2.876626e+02	2.879049e+02	2.879561e+02	2.872882e+02	2.866378e+02	2.856428e+02	2.845798e+02	2.840811e+02	2.843619e+02	2.854142e+02	2.872058e+02	2.896436e+02	2.921843e+02	2.949147e+02	2.977516e+02	3.003125e+02	3.021734e+02	
SCALARS Mach double 1
LOOKUP_TABLE default
3.742381e-01	6.111042e-01	7.382292e-01	8.663002e-01	9.544651e-01	9.719317e-01	9.403570e-01	9.004290e-01	8.698247e-01	8.536521e-01	8.356038e-01	8.149756e-01	7.919808e-01	7.617991e-01	7.270901e-01	6.960469e-01	6.817457e-01	6.824099e-01	6.944738e-01	7.210080e-01	7.648188e-01	8.145744e-01	8.705347e-01	9.489524e-01	1.018480e+00	1.086703e+00	1.200614e+00	1.297969e+00	1.381921e+00	1.475819e+00	1.529946e+00	1.571461e+00	1.591179e+00	1.568965e+00	1.523055e+00	1.486091e+00	1.386933e+00	1.295955e+00	1.255218e+00	1.207156e+00	1.191425e+00	1.224356e+00	1.272429e+00	1.342778e+00	1.438137e+00	1.499292e+00	1.597952e+00	1.667698e+00	1.540878e+00	1.000923e+00	6.049320e-01	5.301792e-01	5.038497e-01	4.811274e-01	4.736590e-01	4.923476e-01	5.156019e-01	5.591488e-01	6.182415e-01	6.680314e-01	7.286344e-01	8.013592e-01	8.091151e-01	7.802650e-01	7.418769e-01	6.746636e-01	6.207161e-01	5.690478e-01	5.193656e-01	4.846898e-01	4.563206e-01	4.331636e-01	4.311084e-01	4.380672e-01	4.497777e-01	4.718768e-01	4.931252e-01	5.185906e-01	5.398400e-01	5.467291e-01	5.502744e-01	5.455060e-01	5.355415e-01	5.275411e-01	5.141248e-01	5.018725e-01	4.899267e-01	4.773594e-01	4.666706e-01	4.563150e-01	4.462732e-01	4.362568e-01	4.265298e-01	4.167918e-01	4.065346e-01	3.952922e-01	3.816750e-01	3.658039e-01	3.390737e-01	3.444917e-01	4.406774e-01	4.407526e-01	4.370731e-01	4.364794e-01	4.352416e-01	4.331403e-01	4.317633e-01	4.302405e-01	4.292744e-01	4.291648e-01	4.289931e-01	4.306901e-01	4.317032e-01	4.335683e-01	4.361936e-01	4.379199e-01	4.380174e-01	4.380646e-01	4.351172e-01	4.303892e-01	4.233958e-01	4.095139e-01	3.966139e-01	3.861181e-01	3.765406e-01	3.746308e-01	3.750535e-01	3.824682e-01	4.034819e-01	4.238366e-01	4.524231e-01	4.878452e-01	5.185055e-01	5.529797e-01	5.923065e-01	6.087116e-01	6.235407e-01	6.288704e-01	6.044456e-01	5.795452e-01	5.559208e-01	5.272713e-01	5.078197e-01	4.975344e-01	4.902720e-01	5.047788e-01	5.314223e-01	5.609751e-01	6.158511e-01	7.607941e-01	1.205877e+00	1.446458e+00	1.477404e+00	1.327017e+00	1.227293e+00	1.105961e+00	9.984033e-01	9.124571e-01	8.197243e-01	7.534310e-01	7.166900e-01	6.744666e-01	6.497426e-01	6.711901e-01	6.954701e-01	7.247372e-01	7.899740e-01	8.986265e-01	1.107619e+00	1.198206e+00	1.161963e+00	1.084576e+00	9.971584e-01	8.693326e-01	7.953335e-01	7.357638e-01	6.679067e-01	6.117915e-01	5.772502e-01	5.397913e-01	5.081201e-01	5.024029e-01	4.979834e-01	4.970465e-01	5.091687e-01	5.207564e-01	5.380969e-01	5.561531e-01	5.644716e-01	5.597993e-01	5.420191e-01	5.106483e-01	4.652800e-01	4.136721e-01	3.510681e-01	2.728303e-01	1.765331e-01	1.341312e-02	
SCALARS Pressure_Coefficient double 1
LOOKUP_TABLE default