# vtk DataFile Version 3.0
vtk output
ASCII
DATASET UNSTRUCTURED_GRID
POINTS 1848 double
1.000000e+02	0.000000e+00	0.0	9.917900e+01	1.278772e+01	0.0	9.672949e+01	2.536546e+01	0.0	9.269168e+01	3.752670e+01	0.0	8.713187e+01	4.907176e+01	0.0	8.014136e+01	5.981105e+01	0.0	7.183494e+01	6.956826e+01	0.0	6.234898e+01	7.818315e+01	0.0	5.183926e+01	8.551428e+01	0.0	4.047833e+01	9.144126e+01	0.0	2.845276e+01	9.586679e+01	0.0	1.595999e+01	9.871818e+01	0.0	3.205158e+00	9.994862e+01	0.0	-9.602303e+00	9.953791e+01	0.0	-2.225209e+01	9.749279e+01	0.0	-3.453651e+01	9.384684e+01	0.0	-4.625383e+01	8.865993e+01	0.0	-5.721167e+01	8.201723e+01	0.0	-6.723009e+01	7.402780e+01	0.0	-7.614460e+01	6.482284e+01	0.0	-8.380881e+01	5.455349e+01	0.0	-9.009689e+01	4.338837e+01	0.0	-9.490557e+01	3.151082e+01	0.0	-9.815592e+01	1.911586e+01	0.0	-9.979454e+01	6.407022e+00	0.0	-9.979454e+01	-6.407022e+00	0.0	-9.815592e+01	-1.911586e+01	0.0	-9.490557e+01	-3.151082e+01	0.0	-9.009689e+01	-4.338837e+01	0.0	-8.380881e+01	-5.455349e+01	0.0	-7.614460e+01	-6.482284e+01	0.0	-6.723009e+01	-7.402780e+01	0.0	-5.721167e+01	-8.201723e+01	0.0	-4.625383e+01	-8.865993e+01	0.0	-3.453651e+01	-9.384684e+01	0.0	-2.225209e+01	-9.749279e+01	0.0	-9.602303e+00	-9.953791e+01	0.0	3.205158e+00	-9.994862e+01	0.0	1.595999e+01	-9.871818e+01	0.0	2.845276e+01	-9.586679e+01	0.0	4.047833e+01	-9.144126e+01	0.0	5.183926e+01	-8.551428e+01	0.0	6.234898e+01	-7.818315e+01	0.0	7.183494e+01	-6.956826e+01	0.0	8.014136e+01	-5.981105e+01	0.0	8.713187e+01	-4.907176e+01	0.0	9.269168e+01	-3.752670e+01	0.0	9.672949e+01	-2.536546e+01	0.0	9.917900e+01	-1.278772e+01	0.0	0.000000e+00	0.000000e+00	0.0	3.403379e-03	3.662924e-03	0.0	7.064195e-03	7.313452e-03	0.0	1.146662e-02	1.040378e-02	0.0	1.610634e-02	1.348215e-02	0.0	2.122314e-02	1.616452e-02	0.0	2.656092e-02	1.886158e-02	0.0	3.227657e-02	2.125053e-02	0.0	3.821145e-02	2.367114e-02	0.0	4.443401e-02	2.596123e-02	0.0	5.085896e-02	2.835058e-02	0.0	5.747934e-02	3.086939e-02	0.0	6.423512e-02	3.366738e-02	0.0	7.111796e-02	3.677399e-02	0.0	7.810532e-02	4.021486e-02	0.0	8.525660e-02	4.387352e-02	0.0	9.288570e-02	4.707869e-02	0.0	1.008160e-01	5.016927e-02	0.0	1.094353e-01	5.181039e-02	0.0	1.183277e-01	5.310885e-02	0.0	1.275923e-01	5.263720e-02	0.0	1.371054e-01	5.212117e-02	0.0	1.467325e-01	5.038997e-02	0.0	1.566076e-01	4.861418e-02	0.0	1.667094e-01	4.668610e-02	0.0	1.770434e-01	4.464362e-02	0.0	1.876283e-01	4.260333e-02	0.0	1.985503e-01	4.109606e-02	0.0	2.097109e-01	3.955585e-02	0.0	2.211563e-01	3.852744e-02	0.0	2.328780e-01	3.797156e-02	0.0	2.448259e-01	3.740496e-02	0.0	2.570041e-01	3.767593e-02	0.0	2.693954e-01	3.795599e-02	0.0	2.819785e-01	3.853311e-02	0.0	2.947431e-01	3.944846e-02	0.0	3.076954e-01	4.037728e-02	0.0	3.207924e-01	4.170266e-02	0.0	3.340551e-01	4.306389e-02	0.0	3.474655e-01	4.452274e-02	0.0	3.610092e-01	4.610271e-02	0.0	3.746859e-01	4.769818e-02	0.0	3.884853e-01	4.928615e-02	0.0	4.023923e-01	5.088480e-02	0.0	4.164036e-01	5.239781e-02	0.0	4.305091e-01	5.378911e-02	0.0	4.446807e-01	5.518693e-02	0.0	4.589322e-01	5.626357e-02	0.0	4.732229e-01	5.731983e-02	0.0	4.875466e-01	5.820011e-02	0.0	5.018909e-01	5.886295e-02	0.0	5.162277e-01	5.952544e-02	0.0	5.305553e-01	5.975947e-02	0.0	5.448459e-01	5.997874e-02	0.0	5.590842e-01	5.995797e-02	0.0	5.732554e-01	5.968424e-02	0.0	5.873460e-01	5.941206e-02	0.0	6.013206e-01	5.859308e-02	0.0	6.151872e-01	5.777808e-02	0.0	6.289082e-01	5.666790e-02	0.0	6.424708e-01	5.525855e-02	0.0	6.558883e-01	5.386427e-02	0.0	6.690684e-01	5.185792e-02	0.0	6.820794e-01	4.985589e-02	0.0	6.948831e-01	4.770129e-02	0.0	7.074578e-01	4.532460e-02	0.0	7.198387e-01	4.298453e-02	0.0	7.320052e-01	4.061799e-02	0.0	7.439603e-01	3.828092e-02	0.0	7.557181e-01	3.608922e-02	0.0	7.672909e-01	3.414551e-02	0.0	7.786351e-01	3.224021e-02	0.0	7.898171e-01	3.087218e-02	0.0	8.007663e-01	2.957776e-02	0.0	8.114945e-01	2.852345e-02	0.0	8.219891e-01	2.761447e-02	0.0	8.322355e-01	2.672988e-02	0.0	8.422322e-01	2.587098e-02	0.0	8.519732e-01	2.498837e-02	0.0	8.614394e-01	2.389593e-02	0.0	8.706549e-01	2.283242e-02	0.0	8.795929e-01	2.158819e-02	0.0	8.882759e-01	2.032679e-02	0.0	8.967038e-01	1.904633e-02	0.0	9.048705e-01	1.769474e-02	0.0	9.127955e-01	1.638314e-02	0.0	9.204702e-01	1.504423e-02	0.0	9.279068e-01	1.373235e-02	0.0	9.351088e-01	1.244843e-02	0.0	9.420781e-01	1.118229e-02	0.0	9.488226e-01	9.956546e-03	0.0	9.553408e-01	8.741315e-03	0.0	9.616427e-01	7.566424e-03	0.0	9.677284e-01	6.408476e-03	0.0	9.736058e-01	5.286023e-03	0.0	9.792763e-01	4.180315e-03	0.0	9.847471e-01	3.104504e-03	0.0	9.900217e-01	2.050762e-03	0.0	9.951041e-01	1.014654e-03	0.0	1.000000e+00	0.000000e+00	0.0	9.950044e-01	2.071591e-04	0.0	9.898205e-01	4.106627e-04	0.0	9.844419e-01	5.640061e-04	0.0	9.788642e-01	6.716180e-04	0.0	9.730833e-01	7.541796e-04	0.0	9.670940e-01	7.769913e-04	0.0	9.608923e-01	7.766103e-04	0.0	9.544738e-01	7.097748e-04	0.0	9.478339e-01	6.266121e-04	0.0	9.409698e-01	4.472815e-04	0.0	9.338757e-01	2.619418e-04	0.0	9.265515e-01	-3.707168e-05	0.0	9.189906e-01	-3.701114e-04	0.0	9.111959e-01	-8.263471e-04	0.0	9.031693e-01	-1.484840e-03	0.0	8.948966e-01	-2.163527e-03	0.0	8.864371e-01	-3.388596e-03	0.0	8.777370e-01	-4.719023e-03	0.0	8.688619e-01	-6.454575e-03	0.0	8.598481e-01	-8.778162e-03	0.0	8.505877e-01	-1.116535e-02	0.0	8.413807e-01	-1.457277e-02	0.0	8.319405e-01	-1.808573e-02	0.0	8.223512e-01	-2.191182e-02	0.0	8.125886e-01	-2.598488e-02	0.0	8.025720e-01	-3.009587e-02	0.0	7.922385e-01	-3.408047e-02	0.0	7.816779e-01	-3.815268e-02	0.0	7.706633e-01	-4.163693e-02	0.0	7.593678e-01	-4.502398e-02	0.0	7.477723e-01	-4.816396e-02	0.0	7.358067e-01	-5.076028e-02	0.0	7.236304e-01	-5.340234e-02	0.0	7.111331e-01	-5.545378e-02	0.0	6.984163e-01	-5.741605e-02	0.0	6.854853e-01	-5.920830e-02	0.0	6.723195e-01	-6.059523e-02	0.0	6.589843e-01	-6.200001e-02	0.0	6.454556e-01	-6.301660e-02	0.0	6.317710e-01	-6.394368e-02	0.0	6.179453e-01	-6.477229e-02	0.0	6.039835e-01	-6.536195e-02	0.0	5.899124e-01	-6.595624e-02	0.0	5.757397e-01	-6.638879e-02	0.0	5.614841e-01	-6.678800e-02	0.0	5.471604e-01	-6.716385e-02	0.0	5.327829e-01	-6.749416e-02	0.0	5.183677e-01	-6.782535e-02	0.0	5.039286e-01	-6.810705e-02	0.0	4.894819e-01	-6.838232e-02	0.0	4.750421e-01	-6.862385e-02	0.0	4.606244e-01	-6.881866e-02	0.0	4.462444e-01	-6.901296e-02	0.0	4.319162e-01	-6.910939e-02	0.0	4.176552e-01	-6.920099e-02	0.0	4.034759e-01	-6.926238e-02	0.0	3.893922e-01	-6.929264e-02	0.0	3.754181e-01	-6.932356e-02	0.0	3.615668e-01	-6.940034e-02	0.0	3.478510e-01	-6.947637e-02	0.0	3.342839e-01	-6.963766e-02	0.0	3.208769e-01	-6.987006e-02	0.0	3.076405e-01	-7.010917e-02	0.0	2.945893e-01	-7.052518e-02	0.0	2.817285e-01	-7.093512e-02	0.0	2.690664e-01	-7.131029e-02	0.0	2.566115e-01	-7.165634e-02	0.0	2.443720e-01	-7.198117e-02	0.0	2.323507e-01	-7.195941e-02	0.0	2.205584e-01	-7.193806e-02	0.0	2.090111e-01	-7.156811e-02	0.0	1.977125e-01	-7.089698e-02	0.0	1.866574e-01	-7.023496e-02	0.0	1.759203e-01	-6.883420e-02	0.0	1.654310e-01	-6.746576e-02	0.0	1.552492e-01	-6.578505e-02	0.0	1.453806e-01	-6.376751e-02	0.0	1.357614e-01	-6.180096e-02	0.0	1.265467e-01	-5.924986e-02	0.0	1.175899e-01	-5.671553e-02	0.0	1.089465e-01	-5.403617e-02	0.0	1.006665e-01	-5.105224e-02	0.0	9.262297e-02	-4.815354e-02	0.0	8.493647e-02	-4.502551e-02	0.0	7.751140e-02	-4.190659e-02	0.0	7.033501e-02	-3.882841e-02	0.0	6.344505e-02	-3.569688e-02	0.0	5.677148e-02	-3.266369e-02	0.0	5.031819e-02	-2.971146e-02	0.0	4.407516e-02	-2.685270e-02	0.0	3.804435e-02	-2.407324e-02	0.0	3.221736e-02	-2.138097e-02	0.0	2.664191e-02	-1.866568e-02	0.0	2.128355e-02	-1.599154e-02	0.0	1.624334e-02	-1.315902e-02	0.0	1.148599e-02	-1.025314e-02	0.0	7.011793e-03	-7.264019e-03	0.0	3.045110e-03	-3.921717e-03	0.0	2.761142e-01	-8.037775e-02	0.0	2.659060e-01	-7.926450e-02	0.0	2.683196e-01	-9.062792e-02	0.0	8.690907e+01	2.712921e+01	0.0	8.228742e+01	3.604128e+01	0.0	7.751426e+01	2.634987e+01	0.0	7.571471e+01	-1.260422e+01	0.0	7.603884e+01	-2.508322e+01	0.0	8.709662e+01	-1.786293e+01	0.0	8.663898e+01	-4.299210e+00	0.0	3.695280e+01	2.264104e+01	0.0	4.714996e+01	2.770370e+01	0.0	4.082909e+01	3.596151e+01	0.0	7.325034e+01	3.421654e+01	0.0	6.959703e+01	-3.608108e+01	0.0	7.616302e+01	-4.334035e+01	0.0	8.146098e+01	-3.644911e+01	0.0	8.680352e+01	-2.845748e+01	0.0	5.428901e+01	2.227172e+01	0.0	4.509638e+01	1.724662e+01	0.0	5.214391e+01	1.268400e+01	0.0	6.390770e+01	-5.190930e+01	0.0	6.052864e+01	-5.945890e+01	0.0	6.867675e+01	-5.989807e+01	0.0	6.811537e+01	5.963883e+01	0.0	7.245705e+01	5.057901e+01	0.0	5.759959e+01	6.569932e+01	0.0	4.337857e+01	-6.324733e+01	0.0	4.452451e+01	-7.460542e+01	0.0	5.323899e+01	-7.196628e+01	0.0	6.849904e+01	-4.474782e+01	0.0	5.119370e+01	7.528112e+01	0.0	2.662366e+01	5.451067e+01	0.0	1.959807e+01	6.376047e+01	0.0	1.591552e+01	5.184473e+01	0.0	5.307375e+01	-5.386745e+01	0.0	5.452579e+01	-6.324024e+01	0.0	2.853121e+01	7.470422e+01	0.0	4.022712e+01	7.892389e+01	0.0	3.022091e+01	8.533613e+01	0.0	3.706077e+01	-7.178231e+01	0.0	2.790542e+01	-7.530082e+01	0.0	3.841232e+01	-8.085965e+01	0.0	4.609281e+00	4.597826e+01	0.0	-2.612791e+00	5.374846e+01	0.0	-7.579762e+00	4.424639e+01	0.0	9.250033e+00	7.851524e+01	0.0	1.755054e+01	7.497197e+01	0.0	1.590340e+01	8.259407e+01	0.0	1.382443e+01	4.120053e+01	0.0	6.609618e+00	3.644831e+01	0.0	1.249692e+01	3.132071e+01	0.0	3.645386e+00	1.366505e+00	0.0	5.032365e+00	9.764931e-01	0.0	4.440095e+00	2.703227e+00	0.0	2.772496e+00	2.481669e+00	0.0	1.973528e+00	1.594062e+00	0.0	2.716338e+00	1.383963e+00	0.0	1.823346e+00	1.022165e+00	0.0	1.590265e+00	7.263043e-01	0.0	1.915941e+00	7.107971e-01	0.0	1.231300e+00	2.762705e-01	0.0	1.082767e+00	2.934352e-01	0.0	1.143701e+00	2.307455e-01	0.0	1.200141e+00	5.954572e-02	0.0	1.277686e+00	1.419813e-01	0.0	1.174293e+00	1.620734e-01	0.0	1.056064e+00	-2.889690e-02	0.0	1.039497e+00	-1.330708e-02	0.0	1.033725e+00	-2.746404e-02	0.0	1.027787e+00	2.881029e-02	0.0	1.015981e+00	2.657375e-02	0.0	1.021480e+00	1.934558e-02	0.0	9.601836e-01	5.381571e-02	0.0	9.798610e-01	5.618309e-02	0.0	9.743968e-01	8.007189e-02	0.0	9.973100e-01	3.910372e-03	0.0	9.816292e-01	1.237110e-02	0.
[...]
POINT_DATA 1848

SCALARS Density double 1
LOOKUP_TABLE default
1.291554e+00	1.291595e+00	1.292032e+00	1.292274e+00	1.292233e+00	1.292181e+00	1.292178e+00	1.292174e+00	1.292161e+00	1.292151e+00	1.292145e+00	1.292148e+00	1.292158e+00	1.292181e+00	1.292210e+00	1.292238e+00	1.292260e+00	1.292276e+00	1.292287e+00	1.292294e+00	1.292298e+00	1.292301e+00	1.292303e+00	1.292306e+00	1.292308e+00	1.292311e+00	1.292314e+00	1.292319e+00	1.292325e+00	1.292333e+00	1.292343e+00	1.292355e+00	1.292371e+00	1.292390e+00	1.292409e+00	1.292430e+00	1.292448e+00	1.292459e+00	1.292454e+00	1.292437e+00	1.292413e+00	1.292387e+00	1.292362e+00	1.292335e+00	1.292303e+00	1.292292e+00	1.292332e+00	1.292243e+00	1.291901e+00	1.617621e+00	1.344560e+00	1.381884e+00	1.310940e+00	1.292928e+00	1.269890e+00	1.262805e+00	1.260489e+00	1.273492e+00	1.284457e+00	1.300278e+00	1.308633e+00	1.306065e+00	1.283898e+00	1.238491e+00	1.136168e+00	1.033130e+00	8.753646e-01	7.195675e-01	5.891764e-01	5.009664e-01	4.394438e-01	3.880698e-01	3.880397e-01	3.983381e-01	4.715680e-01	7.535328e-01	1.060494e+00	1.089515e+00	1.100225e+00	1.103278e+00	1.112951e+00	1.114126e+00	1.110076e+00	1.112994e+00	1.107842e+00	1.105636e+00	1.101323e+00	1.094207e+00	1.089605e+00	1.082023e+00	1.073579e+00	1.065024e+00	1.056473e+00	1.045586e+00	1.038439e+00	1.027462e+00	1.019864e+00	1.014994e+00	1.005794e+00	1.002473e+00	9.957848e-01	9.927338e-01	9.955379e-01	9.914009e-01	9.963976e-01	9.969541e-01	1.002684e+00	1.014226e+00	1.019064e+00	1.033876e+00	1.042430e+00	1.054803e+00	1.073988e+00	1.084551e+00	1.099011e+00	1.112322e+00	1.121533e+00	1.131767e+00	1.139411e+00	1.144400e+00	1.150316e+00	1.152527e+00	1.153239e+00	1.155393e+00	1.154642e+00	1.154617e+00	1.155128e+00	1.155225e+00	1.156977e+00	1.159209e+00	1.160686e+00	1.164563e+00	1.166147e+00	1.169145e+00	1.172291e+00	1.174540e+00	1.177049e+00	1.179145e+00	1.180869e+00	1.182663e+00	1.184018e+00	1.185602e+00	1.186883e+00	1.188644e+00	1.188724e+00	1.190211e+00	1.192141e+00	1.167078e+00	1.207150e+00	1.399755e+00	1.356942e+00	1.383107e+00	1.385674e+00	1.393303e+00	1.398619e+00	1.403508e+00	1.409578e+00	1.413945e+00	1.419504e+00	1.425346e+00	1.431009e+00	1.441267e+00	1.443556e+00	1.457165e+00	1.462900e+00	1.461738e+00	1.472338e+00	1.461551e+00	1.467754e+00	1.459532e+00	1.431284e+00	1.414214e+00	1.381720e+00	1.341059e+00	1.306062e+00	1.248915e+00	1.199749e+00	1.169091e+00	1.116359e+00	1.086383e+00	1.047995e+00	1.021498e+00	1.016635e+00	1.000771e+00	1.007786e+00	1.015491e+00	1.029235e+00	1.053494e+00	1.066053e+00	1.084196e+00	1.100415e+00	1.114161e+00	1.130268e+00	1.140504e+00	1.149484e+00	1.155439e+00	1.160179e+00	1.164179e+00	1.166599e+00	1.169693e+00	1.170648e+00	1.173794e+00	1.179096e+00	1.182629e+00	1.188396e+00	1.194969e+00	1.199361e+00	1.204150e+00	1.207361e+00	1.205656e+00	1.207268e+00	1.201194e+00	1.183885e+00	1.169417e+00	1.156279e+00	1.130704e+00	1.082219e+00	9.848313e-01	9.124717e-01	9.021977e-01	9.029688e-01	9.444867e-01	9.938719e-01	1.010072e+00	1.047925e+00	1.060136e+00	1.095080e+00	1.147157e+00	1.166470e+00	1.207044e+00	1.241256e+00	1.270385e+00	1.310348e+00	1.335829e+00	1.363508e+00	1.391236e+00	1.412729e+00	1.431671e+00	1.448806e+00	1.461346e+00	1.477584e+00	1.491629e+00	1.509863e+00	1.533119e+00	1.564981e+00	1.583379e+00	1.669098e+00	1.164573e+00	1.154456e+00	1.158735e+00	1.292144e+00	1.292214e+00	1.292128e+00	1.292058e+00	1.292243e+00	1.292117e+00	1.291829e+00	1.292196e+00	1.292158e+00	1.292101e+00	1.292171e+00	1.292298e+00	1.292279e+00	1.292274e+00	1.292259e+00	1.292142e+00	1.292056e+00	1.291901e+00	1.292305e+00	1.292324e+00	1.292316e+00	1.292163e+00	1.292169e+00	1.292153e+00	1.292372e+00	1.292384e+00	1.292363e+00	1.292284e+00	1.292151e+00	1.292063e+00	1.292069e+00	1.292010e+00	1.292322e+00	1.292346e+00	1.292110e+00	1.292136e+00	1.292132e+00	1.292399e+00	1.292425e+00	1.292407e+00	1.291952e+00	1.292034e+00	1.292027e+00	1.292106e+00	1.292097e+00	1.292115e+00	1.291933e+00	1.291857e+00	1.291833e+00	1.293134e+00	1.289396e+00	1.292762e+00	1.290476e+00	1.288286e+00	1.296496e+00	1.293616e+00	1.295445e+00	1.296488e+00	1.314099e+00	1.299276e+00	1.312754e+00	1.264816e+00	1.294460e+00	1.310577e+00	1.348421e+00	1.352222e+00	1.331033e+00	1.207575e+00	1.221260e+00	1.224797e+00	1.222314e+00	1.230794e+00	1.255896e+00	1.172894e+00	1.194159e+00	1.190772e+00	1.194013e+00	1.209125e+00	1.221988e+00	1.208178e+00	1.192893e+00	1.189998e+00	1.200111e+00	1.204218e+00	1.187768e+00	1.188605e+00	1.191430e+00	1.190443e+00	1.270685e+00	1.266507e+00	1.255478e+00	1.363436e+00	1.360401e+00	1.392533e+00	1.140627e+00	1.078088e+00	1.125828e+00	9.117339e-01	9.400483e-01	5.954406e-01	7.077285e-01	5.713148e-01	1.302386e+00	1.253710e+00	1.281890e+00	7.729255e-01	6.677641e-01	6.248263e-01	5.137057e-01	1.138292e+00	1.227726e+00	1.240414e+00	1.051308e+00	9.726839e-01	1.208596e+00	1.214182e+00	1.136877e+00	1.131157e+00	1.118737e+00	1.120567e+00	1.114344e+00	1.114675e+00	1.162171e+00	1.163435e+00	1.140384e+00	1.099708e+00	1.159402e+00	1.148985e+00	1.119567e+00	1.116940e+00	1.110353e+00	1.106519e+00	1.119184e+00	1.112774e+00	1.097175e+00	1.086498e+00	1.104245e+00	1.110052e+00	1.174249e+00	1.135551e+00	1.102034e+00	9.194598e-01	1.206997e+00	1.197070e+00	1.199325e+00	1.192918e+00	1.180919e+00	1.179254e+00	1.163908e+00	1.161503e+00	1.169898e+00	1.167056e+00	1.170354e+00	1.162838e+00	1.164346e+00	1.173622e+00	1.242286e+00	1.221202e+00	1.241005e+00	1.218280e+00	1.208527e+00	1.230757e+00	1.174220e+00	1.170024e+00	1.163407e+00	1.191851e+00	1.209716e+00	1.189329e+00	1.174621e+00	1.175537e+00	1.171079e+00	1.171981e+00	1.160150e+00	1.167477e+00	1.180981e+00	1.175422e+00	1.175556e+00	1.181171e+00	1.173200e+00	1.159682e+00	1.160295e+00	1.157513e+00	1.153207e+00	1.134534e+00	1.145058e+00	1.145422e+00	1.188110e+00	1.181416e+00	1.182329e+00	1.128296e+00	1.146544e+00	1.125466e+00	1.106575e+00	1.104021e+00	1.079475e+00	1.292028e+00	1.146484e+00	1.010613e+00	1.217870e+00	1.234670e+00	1.204115e+00	1.109468e+00	1.094366e+00	1.092870e+00	1.291744e+00	1.074488e+00	1.089613e+00	1.132212e+00	1.166976e+00	1.155237e+00	1.055135e+00	1.079992e+00	1.072994e+00	1.087424e+00	1.139935e+00	1.119979e+00	1.146628e+00	1.071679e+00	1.049433e+00	1.052348e+00	1.111964e+00	1.093801e+00	1.114395e+00	1.113895e+00	1.097626e+00	1.061639e+00	1.056673e+00	1.024979e+00	1.030897e+00	1.018857e+00	1.052529e+00	1.043820e+00	1.011584e+00	1.015183e+00	1.029053e+00	1.075489e+00	1.075759e+00	1.053923e+00	1.024890e+00	1.026764e+00	4.260450e-01	4.333682e-01	3.960222e-01	1.128405e+00	1.074653e+00	8.705715e-01	1.021214e+00	1.036990e+00	1.059053e+00	1.041550e+00	1.038553e+00	1.172901e+00	1.188897e+00	1.292208e+00	1.292177e+00	5.788078e-01	4.819907e-01	5.764459e-01	1.292177e+00	5.259211e-01	4.655431e-01	4.183410e-01	1.292230e+00	1.291715e+00	1.291255e+00	1.291998e+00	1.269576e+00	1.238207e+00	1.328381e+00	1.258380e+00	1.295026e+00	1.292258e+00	1.260854e+00	1.292670e+00	1.293206e+00	1.292696e+00	1.292287e+00	1.292175e+00	1.292079e+00	1.292050e+00	1.292243e+00	1.292367e+00	1.292195e+00	1.292458e+00	1.292458e+00	1.292581e+00	1.299646e+00	1.292285e+00	1.292294e+00	1.292292e+00	1.295222e+00	1.291153e+00	1.292320e+00	1.292303e+00	1.292310e+00	1.292311e+00	1.292309e+00	1.292318e+00	1.292301e+00	1.292304e+00	1.292322e+00	1.292328e+00	1.292339e+00	1.292337e+00	1.292379e+00	1.292354e+00	1.292358e+00	1.292349e+00	1.292338e+00	1.292369e+00	1.292398e+00	1.292398e+00	1.292385e+00	1.292381e+00	1.292390e+00	1.292396e+00	1.294543e+00	1.294083e+00	1.293780e+00	1.292425e+00	1.604582e+00	1.624239e+00	1.616627e+00	1.545177e+00	1.532488e+00	1.560293e+00	1.573263e+00	1.573885e+00	1.583725e+00	1.562787e+00	1.590246e+00	1.511308e+00	1.528598e+00	1.531379e+00	1.480793e+00	1.466099e+00	1.452696e+00	1.292438e+00	1.292425e+00	1.496616e+00	1.492269e+00	1.459364e+00	1.418821e+00	1.402166e+00	1.424152e+00	1.324988e+00	1.355909e+00	1.329177e+00	1.438634e+00	1.361481e+00	1.381099e+00	1.384006e+00	1.292475e+00	1.292476e+00	1.292464e+00	1.351463e+00	1.373682e+00	1.332283e+00	1.236210e+00	1.228681e+00	1.208060e+00	1.292447e+00	1.292461e+00	1.292456e+00	1.274419e+00	1.281785e+00	1.263444e+00	1.261729e+00	1.297059e+00	1.242355e+00	1.262930e+00	1.195209e+00	1.152714e+00	1.117157e+00	1.144107e+00	1.292522e+00	1.292565e+00	1.292530e+00	1.072480e+00	1.090179e+00	1.112799e+00	1.294860e+00	1.351389e+00	1.375573e+00	1.328686e+00	1.297166e+00	1.321951e+00	1.078037e+00	1.250155e+00	1.394552e+00	1.384533e+00	1.379415e+00	1.352254e+00	1.435843e+00	1.416086e+00	1.419719e+00	1.156715e+00	1.187831e+00	1.416690e+00	1.400111e+00	1.402499e+00	1.455915e+00	1.449736e+00	1.458839e+00	1.153792e+00	1.137817e+00	1.111350e+00	1.117988e+00	1.438225e+00	1.444597e+00	1.449156e+00	1.107503e+00	1.428405e+00	1.416731e+00	1.445470e+00	1.438055e+00	1.414692e+00	1.418280e+00	1.420863e+00	1.436684e+00	1.409515e+00	1.404059e+00	1.412718e+00	1.410581e+00	1.415081e+00	1.365012e+00	1.372044e+00	1.378354e+00	1.136415e+00	1.198935e+00	1.175138e+00	1.382213e+00	1.393846e+00	1.389959e+00	1.078196e+00	1.051600e+00	1.017691e+00	1.020742e+00	1.028790e+00	1.037679e+00	1.280818e+00	1.248695e+00	1.266488e+00	1.059964e+00	1.065560e+00	1.056056e+00	1.050180e+00	1.099193e+00	1.087662e+00	1.181244e+00	1.167278e+00	1.164289e+00	1.126729e+00	1.137908e+00	1.135030e+00	1.152980e+00	1.154249e+00	1.159707e+00	1.292448e+00	1.292426e+00	1.126436e+00	1.151855e+00	1.157994e+00	1.155467e+00	1.146308e+00	1.173046e+00	1.170340e+00	1.172512e+00	1.190431e+00	1.196068e+00	1.200047e+00	1.179422e+00	1.176767e+00	1.181845e+00	1.178747e+00	1.182361e+00	1.185847e+00	1.182391e+00	1.201569e+00	1.204474e+00	1.205239e+00	1.205046e+00	1.201015e+00	1.197985e+00	1.202039e+00	1.049048e+00	1.203414e+00	1.198672e+00	1.223202e+00	1.232696e+00	1.217592e+00	1.237037e+00	1.186428e+00	1.179081e+00	9.889495e-01	1.204268e+00	1.192038e+00	1.292318e+00	1.294915e+00	1.286528e+00	1.291355e+00	1.184976e+00	1.233884e+00	1.240684e+00	1.291956e+00	1.292173e+00	1.291979e+00	1.294373e+00	1.293696e+00	1.292376e+00	1.391548e+00	1.386132e+00	1.374394e+00	1.292540e+00	1.292905e+00	1.292688e+00	1.292451e+00	1.292508e+00	1.292508e+00	1.292239e+00	1.292271e+00	1.292232e+00	1.292451e+00	1.292412e+00	1.292130e+00	1.292120e+00	1.292130e+00	1.292132e+00	1.291800e+00	1.291687e+00	1.291991e+00	1.291871e+00	1.292289e+00	1.292140e+00	1.291968e+00	1.292055e+00	1.292305e+00	1.292321e+00	1.292344e+00	1.316292e+00	1.350024e+00	1.361290e+00	1.292311e+00	1.292148e+00	1.291750e+00	1.291905e+00	1.291575e+00	1.291479e+00	1.291214e+00	1.290904e+00	1.292543e+00	1.292439e+00	1.292326e+00	1.292322e+00	1.292355e+00	1.292335e+00	1.292333e+00	1.292350e+00	1.292342e+00	1.292280e+00	1.292148e+00	1.292136e+00	1.292453e+00	1.292190e+00	1.292169e+00	1.292133e+00	1.292118e+00	1.292142e+00	1.292126e+00	1.291857e+00	1.291941e+00	1.292195e+00	1.292287e+00	1.292418e+00	1.292363e+00	1.292410e+00	1.292376e+00	1.292351e+00	1.292141e+00	1.292118e+00	1.292278e+00	1.292423e+00	1.168811e+00	1.172164e+00	1.171767e+00	1.300999e+00	1.278544e+00	1.291034e+00	1.291806e+00	1.413542e+00	1.516326e+00	1.292703e+00	1.292584e+00	1.292701e+00	1.292034e+00	1.292065e+00	1.292109e+00	1.292478e+00	1.292207e+00	1.292149e+00	1.292184e+00	1.292301e+00	1.292360e+00	1.292401e+00	1.292408e+00	1.292375e+00	1.291931e+00	1.291991e+00	1.292096e+00	1.292432e+00	1.292497e+00	1.293236e+00	1.293236e+00	1.293115e+00	1.292632e+00	1.292668e+00	1.292354e+00	1.292582e+00	1.292330e+00	1.291863e+00	1.200116e+00	1.234411e+00	1.219251e+00	1.292251e+00	1.292274e+00	1.292324e+00	1.292135e+00	1.292073e+00	1.292330e+00	1.292325e+00	1.292406e+00	1.292372e+00	1.292343e+00	1.292330e+00	1.292273e+00	1.292246e+00	1.292504e+00	1.292496e+00	1.292459e+00	1.292475e+00	1.292490e+00	1.292101e+00	1.292122e+00	1.292475e+00	1.292462e+00	1.292497e+00	1.292118e+00	1.291878e+00	1.291838e+00	1.292207e+00	1.292270e+00	1.292291e+00	1.292341e+00	1.292314e+00	1.292347e+00	1.292330e+00	1.292531e+00	1.291237e+00	1.292578e+00	1.292325e+00	1.292076e+00	1.292007e+00	1.291839e+00	1.292353e+00	1.292114e+00	1.292628e+00	1.292581e+00	1.292449e+00	1.292409e+00	1.291886e+00	1.292522e+00	1.292857e+00	1.292441e+00	1.292432e+00	1.292083e+00	1.292226e+00	1.292346e+00	1.292264e+00	1.292438e+00	1.292528e+00	1.291166e+00	1.291767e+00	1.291884e+00	1.292385e+00	1.292214e+00	1.292488e+00	1.292126e+00	1.292098e+00	1.292101e+00	1.292008e+00	1.292368e+00	1.292306e+00	1.292370e+00	1.290786e+00	1.289873e+00	1.290356e+00	1.292593e+00	1.292686e+00	1.292360e+00	1.292619e+00	1.292720e+00	1.292013e+00	1.286088e+00	1.291693e+00	1.292256e+00	1.293517e+00	1.293181e+00	1.292887e+00	1.290728e+00	1.292298e+00	1.292152e+00	1.293244e+00	1.293621e+00	1.363372e+00	1.293997e+00	1.295325e+00	1.293132e+00	1.290393e+00	1.292999e+00	1.292717e+00	1.292882e+00	1.292977e+00	1.288965e+00	1.292828e+00	1.278675e+00	1.302038e+00	1.284214e+00	1.292150e+00	1.290625e+00	1.124426e+00	1.094976e+00	1.292161e+00	1.291523e+00	1.289644e+00	1.291375e+00	1.292604e+00	1.292782e+00	1.294080e+00	1.293196e+00	1.293009e+00	1.293792e+00	1.393280e+00	1.385090e+00	1.387355e+00	1.291844e+00	1.290170e+00	1.291855e+00	1.289296e+00	1.291267e+00	1.292210e+00	1.288064e+00	1.291929e+00	1.293333e+00	1.538321e+00	1.551923e+00	1.541704e+00	1.293535e+00	1.294341e+00	1.414159e+00	1.388658e+00	1.368907e+00	1.289006e+00	1.294438e+00	1.292662e+00	1.294558e+00	1.292286e+00	1.288360e+00	1.287031e+00	1.297147e+00	1.295036e+00	1.294746e+00	1.291445e+00	1.293144e+00	1.289815e+00	1.286279e+00	1.291006e+00	1.283827e+00	1.288040e+00	1.295683e+00	1.293954e+00	1.298801e+00	1.287434e+00	1.297014e+00	1.294028e+00	1.295121e+00	1.293958e+00	1.296687e+00	1.297247e+00	1.299270e+00	1.295794e+00	1.298569e+00	1.489192e+00	1.447799e+00	1.471280e+00	1.300477e+00	1.303273e+00	1.297610e+00	1.295168e+00	1.281849e+00	1.278688e+00	1.282808e+00	1.286503e+00	1.277633e+00	1.288227e+00	1.291360e+00	1.278696e+00	1.279400e+00	1.284605e+00	1.299957e+00	1.304073e+00	1.299451e+00	1.298892e+00	1.287707e+00	1.395915e+00	1.391229e+00	1.395945e+00	1.292345e+00	1.286688e+00	1.275485e+00	1.297064e+00	1.189733e+00	1.184500e+00	1.185467e+00	1.279039e+00	1.268116e+00	4.693601e-01	1.296965e+00	1.303418e+00	1.300196e+00	1.305879e+00	1.291763e+00	1.285369e+00	1.301263e+00	1.307923e+00	1.293943e+00	1.382206e+00	1.249510e+00	1.243145e+00	1.272932e+00	1.310073e+00	1.305020e+00	1.317539e+00	1.297494e+00	1.289654e+00	1.313225e+00	1.310336e+00	1.319039e+00	1.304062e+00	1.316170e+00	1.306252e+00	1.271349e+00	1.249864e+00	1.251851e+00	1.161191e+00	1.185487e+00	1.168810e+00	1.200200e+00	1.197793e+00	1.198277e+00	1.303874e+00	1.300056e+00	1.296027e+00	1.078594e+00	1.292355e+00	1.307507e+00	5.107590e-01	5.058349e-01	1.301400e+00	1.316275e+00	1.342306e+00	1.330493e+00	1.319313e+00	1.312268e+00	1.334800e+00	1.322133e+00	1.306619e+00	1.307136e+00	1.300275e+00	1.308306e+00	1.284813e+00	1.310222e+00	9.581338e-01	9.359078e-01	9.642810e-01	1.282685e+00	1.031554e+00	1.219421e+00	1.329949e+00	1.330759e+00	1.317832e+00	1.346064e+00	1.347316e+00	1.302130e+00	1.272097e+00	1.270567e+00	1.358681e+00	1.349762e+00	1.058999e+00	9.413092e-01	1.321831e+00	1.306421e+00	1.196646e+00	1.202357e+00	1.255103e+00	1.265260e+00	1.307930e+00	1.292032e+00	1.307339e+00	1.319366e+00	1.314926e+00	1.240693e+00	1.276314e+00	1.247243e+00	1.191317e+00	1.191611e+00	1.176497e+00	1.306360e+00	1.329867e+00	1.343448e+00	1.348381e+00	1.177140e+00	1.324258e+00	1.306011e+00	1.328590e+00	1.252461e+00	1.233519e+00	1.276162e+00	1.302227e+00	1.314919e+00	1.323495e+00	1.190467e+00	1.185744e+00	1.198688e+00	1.203799e+00	1.181526e+00	1.225657e+00	1.307282e+00	1.274843e+00	1.200353e+00	1.196875e+00	1.327719e+00	1.286333e+00	1.173923e+00	1.113031e+00	1.183814e+00	1.128148e+00	1.262289e+00	1.280914e+00	1.345950e+00	1.365947e+00	1.356317e+00	1.375715e+00	1.333372e+00	1.344931e+00	1.263409e+00	1.305395e+00	1.259599e+00	1.361022e+00	1.355906e+00	1.385731e+00	1.370266e+00	1.385132e+00	1.352236e+00	1.365820e+00	1.284171e+00	1.275908e+00	1.282131e+00	1.255976e+00	1.265161e+00	1.302034e+00	1.322947e+00	1.203333e+00	1.276769e+00	1.223907e+00	1.372647e+00	1.367140e+00	1.214008e+00	1.291821e+00	1.334480e+00	9.739302e-01	1.228314e+00	1.329513e+00	1.114622e+00	1.157370e+00	1.316880e+00	8.483467e-01	1.135365e+00	1.128622e+00	1.111470e+00	1.152830e+00	1.178231e+00	1.150196e+00	1.171956e+00	1.152854e+00	8.967625e-01	1.294190e+00	1.296486e+00	1.299733e+00	1.179467e+00	1.363320e+00	1.383183e+00	1.392489e+00	1.398312e+00	1.301198e+00	1.340683e+00	1.288697e+00	1.268079e+00	1.290491e+00	1.219234e+00	1.189713e+00	1.245534e+00	1.351508e+00	1.348559e+00	1.370123e+00	1.203350e+00	1.265420e+00	1.251989e+00	1.182836e+00	1.162822e+00	1.139677e+00	1.408706e+00	1.183983e+00	1.197773e+00	1.200287e+00	1.196127e+00	1.142789e+00	1.121571e+00	1.068095e+00	1.066196e+00	1.045331e+00	1.137659e+00	1.167679e+00	1.162752e+00	1.304355e+00	1.125857e+00	1.226510e+00	1.162836e+00	1.410933e+00	1.412988e+00	1.387368e+00	1.346860e+00	1.457238e+00	1.454365e+00	1.406656e+00	1.433236e+00	1.431374e+00	1.302627e+00	1.146794e+00	1.122380e+00	1.063804e+00	1.005532e+00	9.470791e-01	1.171222e+00	1.318295e+00	1.324106e+00	1.175201e+00	1.190752e+00	1.380689e+00	1.145256e+00	1.149017e+00	1.161505e+00	1.415154e+00	1.429315e+00	1.445592e+00	1.101688e+00	1.077915e+00	1.091097e+00	1.253740e+00	1.228122e+00	1.067458e+00	8.544150e-01	8.703849e-01	1.361839e+00	1.455804e+00	1.446167e+00	1.358832e+00	1.333715e+00	1.248679e+00	1.069090e+00	1.040543e+00	1.051149e+00	1.256886e+00	1.230408e+00	1.227616e+00	1.247618e+00	1.134124e+00	1.232463e+00	1.278805e+00	1.355751e+00	1.189463e+00	1.183029e+00	1.136881e+00	1.184431e+00	1.016702e+00	1.195891e+00	1.084882e+00	1.112579e+00	1.061320e+00	1.239949e+00	1.223780e+00	1.108570e+00	1.199615e+00	1.114513e+00	1.121137e+00	1.200194e+00	9.475403e-01	8.073226e-01	9.666537e-01	1.366965e+00	1.354495e+00	1.343919e+00	1.338018e+00	1.310969e+00	1.333846e+00	1.185227e+00	1.084494e+00	1.093942e+00	1.194134e+00	1.417269e+00	1.471975e+00	1.458829e+00	1.201164e+00	1.195149e+00	1.185613e+00	1.255224e+00	1.063017e+00	1.145235e+00	1.139222e+00	1.375072e+00	1.028231e+00	1.006074e+00	1.176361e+00	1.177200e+00	1.167180e+00	1.171222e+00	1.168279e+00	1.333874e+00	1.334255e+00	1.242110e+00	1.191764e+00	1.246197e+00	1.240744e+00	1.214183e+00	1.190578e+00	1.187321e+00	1.198736e+00	1.200601e+00	1.199228e+00	1.039147e+00	1.142489e+00	1.127053e+00	1.169635e+00	1.386718e+00	1.081046e+00	1.051276e+00	1.137313e+00	1.193656e+00	1.217219e+00	1.201826e+00	1.197656e+00	1.184375e+00	1.178460e+00	1.177916e+00	1.158515e+00	1.159470e+00	1.265366e+00	1.234929e+00	1.212515e+00	1.288646e+00	1.269501e+00	1.195020e+00	1.136041e+00	1.166797e+00	1.090754e+00	1.108697e+00	1.113160e+00	1.094073e+00	1.450314e+00	1.447530e+00	1.262222e+00	7.008152e-01	8.171928e-01	1.150761e+00	1.131340e+00	9.860311e-01	1.023158e+00	1.235701e+00	1.256418e+00	1.099393e+00	1.333068e+00	9.418383e-01	6.649352e-01	1.098280e+00	1.127103e+00	1.111913e+00	1.370600e+00	1.360694e+00	1.329470e+00	1.303057e+00	1.365447e+00	1.140949e+00	1.106307e+00	1.056262e+00	1.055246e+00	1.032779e+00	1.166067e+00	1.050356e+00	1.404984e+00	1.482757e+00	1.459709e+00	1.485829e+00	1.197031e+00	1.205055e+00	1.188060e+00	1.228680e+00	1.160710e+00	1.151385e+00	1.162317e+00	1.503184e+00	1.479398e+00	1.460666e+00	1.233603e+00	1.083890e+00	1.072945e+00	1.367137e+00	1.277482e+00	1.268882e+00	1.301569e+00	1.437069e+00	1.071691e+00	1.459738e+00	1.131015e+00	1.076037e+00	1.081350e+00	1.331239e+00	1.195089e+00	1.314636e+00	1.356055e+00	1.197661e+00	1.193997e+00	1.444101e+00	1.255999e+00	1.233607e+00	1.198937e+00	1.183907e+00	1.190911e+00	1.192675e+00	1.190102e+00	1.216145e+00	1.205294e+00	1.160311e+00	1.178179e+00	1.166709e+00	1.069336e+00	1.265435e+00	1.095205e+00	1.222055e+00	1.202987e+00	1.112798e+00	1.138545e+00	1.114474e+00	1.104789e+00	1.064776e+00	1.082672e+00	1.069062e+00	1.118623e+00	1.098559e+00	1.189801e+00	1.193384e+00	1.186153e+00	1.184909e+00	1.105927e+00	1.131443e+00	1.164089e+00	1.172887e+00	1.067131e+00	1.105373e+00	1.036084e+00	1.040144e+00	1.084471e+00	1.170441e+00	1.163328e+00	1.161059e+00	7.009565