# vtk DataFile Version 3.0
vtk output
ASCII
DATASET UNSTRUCTURED_GRID
POINTS 198 double
0.000000e+00	0.000000e+00	0.0	3.403379e-03	3.662924e-03	0.0	7.064195e-03	7.313452e-03	0.0	1.146662e-02	1.040378e-02	0.0	1.610634e-02	1.348215e-02	0.0	2.122314e-02	1.616452e-02	0.0	2.656092e-02	1.886158e-02	0.0	3.227657e-02	2.125053e-02	0.0	3.821145e-02	2.367114e-02	0.0	4.443401e-02	2.596123e-02	0.0	5.085896e-02	2.835058e-02	0.0	5.747934e-02	3.086939e-02	0.0	6.423512e-02	3.366738e-02	0.0	7.111796e-02	3.677399e-02	0.0	7.810532e-02	4.021486e-02	0.0	8.525660e-02	4.387352e-02	0.0	9.288570e-02	4.707869e-02	0.0	1.008160e-01	5.016927e-02	0.0	1.094353e-01	5.181039e-02	0.0	1.183277e-01	5.310885e-02	0.0	1.275923e-01	5.263720e-02	0.0	1.371054e-01	5.212117e-02	0.0	1.467325e-01	5.038997e-02	0.0	1.566076e-01	4.861418e-02	0.0	1.667094e-01	4.668610e-02	0.0	1.770434e-01	4.464362e-02	0.0	1.876283e-01	4.260333e-02	0.0	1.985503e-01	4.109606e-02	0.0	2.097109e-01	3.955585e-02	0.0	2.211563e-01	3.852744e-02	0.0	2.328780e-01	3.797156e-02	0.0	2.448259e-01	3.740496e-02	0.0	2.570041e-01	3.767593e-02	0.0	2.693954e-01	3.795599e-02	0.0	2.819785e-01	3.853311e-02	0.0	2.947431e-01	3.944846e-02	0.0	3.076954e-01	4.037728e-02	0.0	3.207924e-01	4.170266e-02	0.0	3.340551e-01	4.306389e-02	0.0	3.474655e-01	4.452274e-02	0.0	3.610092e-01	4.610271e-02	0.0	3.746859e-01	4.769818e-02	0.0	3.884853e-01	4.928615e-02	0.0	4.023923e-01	5.088480e-02	0.0	4.164036e-01	5.239781e-02	0.0	4.305091e-01	5.378911e-02	0.0	4.446807e-01	5.518693e-02	0.0	4.589322e-01	5.626357e-02	0.0	4.732229e-01	5.731983e-02	0.0	4.875466e-01	5.820011e-02	0.0	5.018909e-01	5.886295e-02	0.0	5.162277e-01	5.952544e-02	0.0	5.305553e-01	5.975947e-02	0.0	5.448459e-01	5.997874e-02	0.0	5.590842e-01	5.995797e-02	0.0	5.732554e-01	5.968424e-02	0.0	5.873460e-01	5.941206e-02	0.0	6.013206e-01	5.859308e-02	0.0	6.151872e-01	5.777808e-02	0.0	6.289082e-01	5.666790e-02	0.0	6.424708e-01	5.525855e-02	0.0	6.558883e-01	5.386427e-02	0.0	6.690684e-01	5.185792e-02	0.0	6.820794e-01	4.985589e-02	0.0	6.948831e-01	4.770129e-02	0.0	7.074578e-01	4.532460e-02	0.0	7.198387e-01	4.298453e-02	0.0	7.320052e-01	4.061799e-02	0.0	7.439603e-01	3.828092e-02	0.0	7.557181e-01	3.608922e-02	0.0	7.672909e-01	3.414551e-02	0.0	7.786351e-01	3.224021e-02	0.0	7.898171e-01	3.087218e-02	0.0	8.007663e-01	2.957776e-02	0.0	8.114945e-01	2.852345e-02	0.0	8.219891e-01	2.761447e-02	0.0	8.322355e-01	2.672988e-02	0.0	8.422322e-01	2.587098e-02	0.0	8.519732e-01	2.498837e-02	0.0	8.614394e-01	2.389593e-02	0.0	8.706549e-01	2.283242e-02	0.0	8.795929e-01	2.158819e-02	0.0	8.882759e-01	2.032679e-02	0.0	8.967038e-01	1.904633e-02	0.0	9.048705e-01	1.769474e-02	0.0	9.127955e-01	1.638314e-02	0.0	9.204702e-01	1.504423e-02	0.0	9.279068e-01	1.373235e-02	0.0	9.351088e-01	1.244843e-02	0.0	9.420781e-01	1.118229e-02	0.0	9.488226e-01	9.956546e-03	0.0	9.553408e-01	8.741315e-03	0.0	9.616427e-01	7.566424e-03	0.0	9.677284e-01	6.408476e-03	0.0	9.736058e-01	5.286023e-03	0.0	9.792763e-01	4.180315e-03	0.0	9.847471e-01	3.104504e-03	0.0	9.900217e-01	2.050762e-03	0.0	9.951041e-01	1.014654e-03	0.0	1.000000e+00	0.000000e+00	0.0	9.950044e-01	2.071591e-04	0.0	9.898205e-01	4.106627e-04	0.0	9.844419e-01	5.640061e-04	0.0	9.788642e-01	6.716180e-04	0.0	9.730833e-01	7.541796e-04	0.0	9.670940e-01	7.769913e-04	0.0	9.608923e-01	7.766103e-04	0.0	9.544738e-01	7.097748e-04	0.0	9.478339e-01	6.266121e-04	0.0	9.409698e-01	4.472815e-04	0.0	9.338757e-01	2.619418e-04	0.0	9.265515e-01	-3.707168e-05	0.0	9.189906e-01	-3.701114e-04	0.0	9.111959e-01	-8.263471e-04	0.0	9.031693e-01	-1.484840e-03	0.0	8.948966e-01	-2.163527e-03	0.0	8.864371e-01	-3.388596e-03	0.0	8.777370e-01	-4.719023e-03	0.0	8.688619e-01	-6.454575e-03	0.0	8.598481e-01	-8.778162e-03	0.0	8.505877e-01	-1.116535e-02	0.0	8.413807e-01	-1.457277e-02	0.0	8.319405e-01	-1.808573e-02	0.0	8.223512e-01	-2.191182e-02	0.0	8.125886e-01	-2.598488e-02	0.0	8.025720e-01	-3.009587e-02	0.0	7.922385e-01	-3.408047e-02	0.0	7.816779e-01	-3.815268e-02	0.0	7.706633e-01	-4.163693e-02	0.0	7.593678e-01	-4.502398e-02	0.0	7.477723e-01	-4.816396e-02	0.0	7.358067e-01	-5.076028e-02	0.0	7.236304e-01	-5.340234e-02	0.0	7.111331e-01	-5.545378e-02	0.0	6.984163e-01	-5.741605e-02	0.0	6.854853e-01	-5.920830e-02	0.0	6.723195e-01	-6.059523e-02	0.0	6.589843e-01	-6.200001e-02	0.0	6.454556e-01	-6.301660e-02	0.0	6.317710e-01	-6.394368e-02	0.0	6.179453e-01	-6.477229e-02	0.0	6.039835e-01	-6.536195e-02	0.0	5.899124e-01	-6.595624e-02	0.0	5.757397e-01	-6.638879e-02	0.0	5.614841e-01	-6.678800e-02	0.0	5.471604e-01	-6.716385e-02	0.0	5.327829e-01	-6.749416e-02	0.0	5.183677e-01	-6.782535e-02	0.0	5.039286e-01	-6.810705e-02	0.0	4.894819e-01	-6.838232e-02	0.0	4.750421e-01	-6.862385e-02	0.0	4.606244e-01	-6.881866e-02	0.0	4.462444e-01	-6.901296e-02	0.0	4.319162e-01	-6.910939e-02	0.0	4.176552e-01	-6.920099e-02	0.0	4.034759e-01	-6.926238e-02	0.0	3.893922e-01	-6.929264e-02	0.0	3.754181e-01	-6.932356e-02	0.0	3.615668e-01	-6.940034e-02	0.0	3.478510e-01	-6.947637e-02	0.0	3.342839e-01	-6.963766e-02	0.0	3.208769e-01	-6.987006e-02	0.0	3.076405e-01	-7.010917e-02	0.0	2.945893e-01	-7.052518e-02	0.0	2.817285e-01	-7.093512e-02	0.0	2.690664e-01	-7.131029e-02	0.0	2.566115e-01	-7.165634e-02	0.0	2.443720e-01	-7.198117e-02	0.0	2.323507e-01	-7.195941e-02	0.0	2.205584e-01	-7.193806e-02	0.0	2.090111e-01	-7.156811e-02	0.0	1.977125e-01	-7.089698e-02	0.0	1.866574e-01	-7.023496e-02	0.0	1.759203e-01	-6.883420e-02	0.0	1.654310e-01	-6.746576e-02	0.0	1.552492e-01	-6.578505e-02	0.0	1.453806e-01	-6.376751e-02	0.0	1.357614e-01	-6.180096e-02	0.0	1.265467e-01	-5.924986e-02	0.0	1.175899e-01	-5.671553e-02	0.0	1.089465e-01	-5.403617e-02	0.0	1.006665e-01	-5.105224e-02	0.0	9.262297e-02	-4.815354e-02	0.0	8.493647e-02	-4.502551e-02	0.0	7.751140e-02	-4.190659e-02	0.0	7.033501e-02	-3.882841e-02	0.0	6.344505e-02	-3.569688e-02	0.0	5.677148e-02	-3.266369e-02	0.0	5.031819e-02	-2.971146e-02	0.0	4.407516e-02	-2.685270e-02	0.0	3.804435e-02	-2.407324e-02	0.0	3.221736e-02	-2.138097e-02	0.0	2.664191e-02	-1.866568e-02	0.0	2.128355e-02	-1.599154e-02	0.0	1.624334e-02	-1.315902e-02	0.0	1.148599e-02	-1.025314e-02	0.0	7.011793e-03	-7.264019e-03	0.0	3.045110e-03	-3.921717e-03	0.0	
CELLS 198	594
2	23	24	2	24	25	2	25	26	2	26	27	2	27	28	2	28	29	2	29	30	2	30	31	2	31	32	2	32	33	2	33	34	2	34	35	2	35	36	2	36	37	2	37	38	2	38	39	2	39	40	2	40	41	2	41	42	2	42	43	2	43	44	2	44	45	2	45	46	2	46	47	2	47	48	2	48	49	2	49	50	2	50	51	2	51	52	2	52	53	2	53	54	2	54	55	2	55	56	2	56	57	2	57	58	2	58	59	2	59	60	2	60	61	2	61	62	2	62	63	2	63	64	2	64	65	2	65	66	2	66	67	2	67	68	2	68	69	2	69	70	2	70	71	2	71	72	2	72	73	2	73	74	2	74	75	2	75	76	2	76	77	2	77	78	2	78	79	2	79	80	2	80	81	2	81	82	2	82	83	2	83	84	2	84	85	2	85	86	2	86	87	2	87	88	2	88	89	2	89	90	2	90	91	2	91	92	2	92	93	2	93	94	2	94	95	2	95	96	2	96	97	2	97	98	2	98	99	2	99	100	2	100	101	2	101	102	2	102	103	2	103	104	2	104	105	2	105	106	2	106	107	2	107	108	2	108	109	2	109	110	2	110	111	2	111	112	2	112	113	2	113	114	2	114	115	2	115	116	2	116	117	2	117	118	2	118	119	2	119	120	2	120	121	2	121	122	2	122	123	2	123	124	2	124	125	2	125	126	2	126	127	2	127	128	2	128	129	2	129	130	2	130	131	2	131	132	2	132	133	2	133	134	2	134	135	2	135	136	2	136	137	2	137	138	2	138	139	2	139	140	2	140	141	2	141	142	2	142	143	2	143	144	2	144	145	2	145	146	2	146	147	2	147	148	2	148	149	2	149	150	2	150	151	2	151	152	2	152	153	2	153	154	2	154	155	2	155	156	2	156	157	2	157	158	2	158	159	2	0	1	2	1	2	2	2	3	2	3	4	2	4	5	2	5	6	2	6	7	2	7	8	2	8	9	2	9	10	2	10	11	2	11	12	2	12	13	2	13	14	2	14	15	2	15	16	2	16	17	2	17	18	2	18	19	2	19	20	2	20	21	2	21	22	2	22	23	2	159	160	2	160	161	2	161	162	2	162	163	2	163	164	2	164	165	2	165	166	2	166	167	2	167	168	2	168	169	2	169	170	2	170	171	2	171	172	2	172	173	2	173	174	2	174	175	2	175	176	2	176	177	2	177	178	2	178	179	2	179	180	2	180	181	2	181	182	2	182	183	2	183	184	2	184	185	2	185	186	2	186	187	2	187	188	2	188	189	2	189	190	2	190	191	2	191	192	2	192	193	2	193	194	2	194	195	2	195	196	2	196	197	2	197	0	
CELL_TYPES 198
3	3	3	3	3	3	3	3	3	3	3	3	3	3	3	3	3	3	3	3	3	3	3	3	3	3	3	3	3	3	3	3	3	3	3	3	3	3	3	3	3	3	3	3	3	3	3	3	3	3	3	3	3	3	3	3	3	3	3	3	3	3	3	3	3	3	3	3	3	3	3	3	3	3	3	3	3	3	3	3	3	3	3	3	3	3	3	3	3	3	3	3	3	3	3	3	3	3	3	3	3	3	3	3	3	3	3	3	3	3	3	3	3	3	3	3	3	3	3	3	3	3	3	3	3	3	3	3	3	3	3	3	3	3	3	3	3	3	3	3	3	3	3	3	3	3	3	3	3	3	3	3	3	3	3	3	3	3	3	3	3	3	3	3	3	3	3	3	3	3	3	3	3	3	3	3	3	3	3	3	3	3	3	3	3	3	3	3	3	3	3	3	3	3	3	3	3	3	
POINT_DATA 198

SCALARS Density double 1
LOOKUP_TABLE default
1.617621e+00	1.344560e+00	1.381884e+00	1.310940e+00	1.292928e+00	1.269890e+00	1.262805e+00	1.260489e+00	1.273492e+00	1.284457e+00	1.300278e+00	1.308633e+00	1.306065e+00	1.283898e+00	1.238491e+00	1.136168e+00	1.033130e+00	8.753646e-01	7.195675e-01	5.891764e-01	5.009664e-01	4.394438e-01	3.880698e-01	3.880397e-01	3.983381e-01	4.715680e-01	7.535328e-01	1.060494e+00	1.089515e+00	1.100225e+00	1.103278e+00	1.112951e+00	1.114126e+00	1.110076e+00	1.112994e+00	1.107842e+00	1.105636e+00	1.101323e+00	1.094207e+00	1.089605e+00	1.082023e+00	1.073579e+00	1.065024e+00	1.056473e+00	1.045586e+00	1.038439e+00	1.027462e+00	1.019864e+00	1.014994e+00	1.005794e+00	1.002473e+00	9.957848e-01	9.927338e-01	9.955379e-01	9.914009e-01	9.963976e-01	9.969541e-01	1.002684e+00	1.014226e+00	1.019064e+00	1.033876e+00	1.042430e+00	1.054803e+00	1.073988e+00	1.084551e+00	1.099011e+00	1.112322e+00	1.121533e+00	1.131767e+00	1.139411e+00	1.144400e+00	1.150316e+00	1.152527e+00	1.153239e+00	1.155393e+00	1.154642e+00	1.154617e+00	1.155128e+00	1.155225e+00	1.156977e+00	1.159209e+00	1.160686e+00	1.164563e+00	1.166147e+00	1.169145e+00	1.172291e+00	1.174540e+00	1.177049e+00	1.179145e+00	1.180869e+00	1.182663e+00	1.184018e+00	1.185602e+00	1.186883e+00	1.188644e+00	1.188724e+00	1.190211e+00	1.192141e+00	1.167078e+00	1.207150e+00	1.399755e+00	1.356942e+00	1.383107e+00	1.385674e+00	1.393303e+00	1.398619e+00	1.403508e+00	1.409578e+00	1.413945e+00	1.419504e+00	1.425346e+00	1.431009e+00	1.441267e+00	1.443556e+00	1.457165e+00	1.462900e+00	1.461738e+00	1.472338e+00	1.461551e+00	1.467754e+00	1.459532e+00	1.431284e+00	1.414214e+00	1.381720e+00	1.341059e+00	1.306062e+00	1.248915e+00	1.199749e+00	1.169091e+00	1.116359e+00	1.086383e+00	1.047995e+00	1.021498e+00	1.016635e+00	1.000771e+00	1.007786e+00	1.015491e+00	1.029235e+00	1.053494e+00	1.066053e+00	1.084196e+00	1.100415e+00	1.114161e+00	1.130268e+00	1.140504e+00	1.149484e+00	1.155439e+00	1.160179e+00	1.164179e+00	1.166599e+00	1.169693e+00	1.170648e+00	1.173794e+00	1.179096e+00	1.182629e+00	1.188396e+00	1.194969e+00	1.199361e+00	1.204150e+00	1.207361e+00	1.205656e+00	1.207268e+00	1.201194e+00	1.183885e+00	1.169417e+00	1.156279e+00	1.130704e+00	1.082219e+00	9.848313e-01	9.124717e-01	9.021977e-01	9.029688e-01	9.444867e-01	9.938719e-01	1.010072e+00	1.047925e+00	1.060136e+00	1.095080e+00	1.147157e+00	1.166470e+00	1.207044e+00	1.241256e+00	1.270385e+00	1.310348e+00	1.335829e+00	1.363508e+00	1.391236e+00	1.412729e+00	1.431671e+00	1.448806e+00	1.461346e+00	1.477584e+00	1.491629e+00	1.509863e+00	1.533119e+00	1.564981e+00	1.583379e+00	1.669098e+00	
VECTORS Momentum double
1.959267e+01	1.448005e+02	0.0	1.544953e+02	1.512320e+02	0.0	1.832149e+02	1.544114e+02	0.0	2.157671e+02	1.464550e+02	0.0	2.386001e+02	1.405189e+02	0.0	2.533462e+02	1.300732e+02	0.0	2.633866e+02	1.211293e+02	0.0	2.690652e+02	1.109632e+02	0.0	2.713600e+02	1.050705e+02	0.0	2.705191e+02	1.000550e+02	0.0	2.669831e+02	1.004012e+02	0.0	2.648522e+02	1.052350e+02	0.0	2.644136e+02	1.144646e+02	0.0	2.672597e+02	1.261331e+02	0.0	2.772226e+02	1.401760e+02	0.0	2.896193e+02	1.360587e+02	0.0	3.025878e+02	1.257109e+02	0.0	3.030240e+02	9.044143e+01	0.0	2.887120e+02	4.991401e+01	0.0	2.610302e+02	1.418532e+01	0.0	2.347100e+02	-1.028575e+01	0.0	2.149800e+02	-2.447148e+01	0.0	1.919834e+02	-3.451011e+01	0.0	1.930596e+02	-3.690348e+01	0.0	1.927800e+02	-3.726362e+01	0.0	2.023876e+02	-4.124316e+01	0.0	2.143044e+02	-4.014558e+01	0.0	1.945272e+02	-2.354160e+01	0.0	1.793690e+02	-1.901365e+01	0.0	1.698548e+02	-1.163234e+01	0.0	1.608297e+02	-7.769210e+00	0.0	1.550130e+02	-1.841234e+00	0.0	1.516498e+02	3.501382e+00	0.0	1.502613e+02	5.140371e+00	0.0	1.499911e+02	8.952207e+00	0.0	1.508744e+02	1.078465e+01	0.0	1.527373e+02	1.320958e+01	0.0	1.561292e+02	1.584215e+01	0.0	1.603624e+02	1.683841e+01	0.0	1.642267e+02	1.852804e+01	0.0	1.681890e+02	1.971248e+01	0.0	1.725090e+02	2.002638e+01	0.0	1.767674e+02	2.032715e+01	0.0	1.819041e+02	2.030167e+01	0.0	1.860482e+02	1.916972e+01	0.0	1.904634e+02	1.880454e+01	0.0	1.949426e+02	1.689133e+01	0.0	1.980571e+02	1.473191e+01	0.0	2.013992e+02	1.365695e+01	0.0	2.037851e+02	1.094057e+01	0.0	2.057234e+02	9.543168e+00	0.0	2.075866e+02	6.465356e+00	0.0	2.084726e+02	3.210374e+00	0.0	2.093017e+02	1.606552e+00	0.0	2.084849e+02	-2.304281e+00	0.0	2.088045e+02	-4.071642e+00	0.0	2.082918e+02	-8.094725e+00	0.0	2.056675e+02	-1.216638e+01	0.0	2.032712e+02	-1.418139e+01	0.0	1.991932e+02	-1.852116e+01	0.0	1.952289e+02	-2.014642e+01	0.0	1.899841e+02	-2.417763e+01	0.0	1.817087e+02	-2.790066e+01	0.0	1.744715e+02	-2.806219e+01	0.0	1.661066e+02	-2.967125e+01	0.0	1.569036e+02	-2.964697e+01	0.0	1.490438e+02	-2.848820e+01	0.0	1.408088e+02	-2.742927e+01	0.0	1.326849e+02	-2.525764e+01	0.0	1.258943e+02	-2.229300e+01	0.0	1.200263e+02	-2.020235e+01	0.0	1.159299e+02	-1.684102e+01	0.0	1.133919e+02	-1.367601e+01	0.0	1.119116e+02	-1.208322e+01	0.0	1.113624e+02	-1.021801e+01	0.0	1.118133e+02	-9.665380e+00	0.0	1.122394e+02	-9.710370e+00	0.0	1.127092e+02	-9.995717e+00	0.0	1.120986e+02	-1.155908e+01	0.0	1.099619e+02	-1.268729e+01	0.0	1.066962e+02	-1.351393e+01	0.0	1.030919e+02	-1.468990e+01	0.0	9.947040e+01	-1.471518e+01	0.0	9.560600e+01	-1.521227e+01	0.0	9.192795e+01	-1.527017e+01	0.0	8.876202e+01	-1.510792e+01	0.0	8.519310e+01	-1.495739e+01	0.0	8.149026e+01	-1.443276e+01	0.0	7.783206e+01	-1.398867e+01	0.0	7.406532e+01	-1.343266e+01	0.0	7.038384e+01	-1.293143e+01	0.0	6.714550e+01	-1.253592e+01	0.0	6.407932e+01	-1.208229e+01	0.0	6.143467e+01	-1.173370e+01	0.0	5.895921e+01	-1.134774e+01	0.0	5.566685e+01	-1.102636e+01	0.0	5.276401e+01	-1.030247e+01	0.0	5.151899e+01	-1.106863e+01	0.0	5.832831e+01	-1.541049e+01	0.0	1.536717e+02	1.906753e+01	0.0	3.133417e+02	-1.572500e+01	0.0	2.794237e+02	-8.020147e+00	0.0	2.851046e+02	-7.132362e+00	0.0	2.801984e+02	-4.608176e+00	0.0	2.783735e+02	-2.535651e+00	0.0	2.762188e+02	-5.161177e-01	0.0	2.742859e+02	1.475138e+00	0.0	2.722415e+02	3.093221e+00	0.0	2.700362e+02	5.241812e+00	0.0	2.679768e+02	7.010715e+00	0.0	2.653914e+02	8.916634e+00	0.0	2.625713e+02	1.113591e+01	0.0	2.592756e+02	1.328147e+01	0.0	2.556012e+02	1.808469e+01	0.0	2.524278e+02	2.056670e+01	0.0	2.471255e+02	2.814637e+01	0.0	2.446884e+02	3.658450e+01	0.0	2.424246e+02	4.221292e+01	0.0	2.396862e+02	5.466960e+01	0.0	2.411108e+02	6.194415e+01	0.0	2.394521e+02	7.518318e+01	0.0	2.432470e+02	9.040369e+01	0.0	2.529977e+02	9.730698e+01	0.0	2.595124e+02	1.058065e+02	0.0	2.705944e+02	1.118726e+02	0.0	2.824805e+02	1.121261e+02	0.0	2.921203e+02	1.127867e+02	0.0	3.049150e+02	1.067990e+02	0.0	3.144056e+02	9.665477e+01	0.0	3.172205e+02	9.030344e+01	0.0	3.241971e+02	7.874215e+01	0.0	3.250689e+02	7.064866e+01	0.0	3.266055e+02	6.179701e+01	0.0	3.293459e+02	5.240820e+01	0.0	3.278616e+02	4.822047e+01	0.0	3.308273e+02	4.019399e+01	0.0	3.308908e+02	3.487768e+01	0.0	3.316972e+02	2.965433e+01	0.0	3.331558e+02	2.361831e+01	0.0	3.322227e+02	2.109255e+01	0.0	3.328467e+02	1.686643e+01	0.0	3.322195e+02	1.407353e+01	0.0	3.314803e+02	1.202158e+01	0.0	3.311491e+02	9.600229e+00	0.0	3.299070e+02	8.945162e+00	0.0	3.294617e+02	8.092289e+00	0.0	3.288384e+02	7.549267e+00	0.0	3.284571e+02	6.968003e+00	0.0	3.281247e+02	6.327307e+00	0.0	3.277884e+02	5.851807e+00	0.0	3.276489e+02	4.957859e+00	0.0	3.272178e+02	4.473726e+00	0.0	3.269869e+02	3.321365e+00	0.0	3.265171e+02	2.136922e+00	0.0	3.257510e+02	1.785918e+00	0.0	3.253402e+02	1.032194e+00	0.0	3.245146e+02	6.778864e-01	0.0	3.237381e+02	1.251106e+00	0.0	3.233080e+02	1.774845e+00	0.0	3.227422e+02	2.859774e+00	0.0	3.223373e+02	4.758151e+00	0.0	3.228601e+02	5.625608e+00	0.0	3.229703e+02	8.065827e+00	0.0	3.241245e+02	1.037434e+01	0.0	3.263255e+02	9.978843e+00	0.0	3.274974e+02	9.304344e+00	0.0	3.280892e+02	8.618270e+00	0.0	3.305853e+02	3.671327e+00	0.0	3.291050e+02	2.725897e-01	0.0	3.264175e+02	-5.163384e+00	0.0	3.269138e+02	-1.500030e+01	0.0	3.245496e+02	-1.925988e+01	0.0	3.290603e+02	-3.144165e+01	0.0	3.309246e+02	-4.341511e+01	0.0	3.281752e+02	-4.850785e+01	0.0	3.292954e+02	-6.108922e+01	0.0	3.249544e+02	-6.615645e+01	0.0	3.237414e+02	-7.820312e+01	0.0	3.199718e+02	-9.011422e+01	0.0	3.131614e+02	-9.284915e+01	0.0	3.080276e+02	-1.034258e+02	0.0	3.000534e+02	-1.082137e+02	0.0	2.919576e+02	-1.120234e+02	0.0	2.826731e+02	-1.171032e+02	0.0	2.733659e+02	-1.160639e+02	0.0	2.648804e+02	-1.170396e+02	0.0	2.553868e+02	-1.161000e+02	0.0	2.469552e+02	-1.125198e+02	0.0	2.390121e+02	-1.093741e+02	0.0	2.313739e+02	-1.062341e+02	0.0	2.237446e+02	-1.031256e+02	0.0	2.150190e+02	-1.020062e+02	0.0	2.042208e+02	-1.007631e+02	0.0	1.902907e+02	-1.008255e+02	0.0	1.698206e+02	-9.904236e+01	0.0	1.423322e+02	-9.081241e+01	0.0	1.055503e+02	-7.721775e+01	0.0	3.321351e+01	-3.368711e+01	0.0	
SCALARS Energy double 1
LOOKUP_TABLE default
3.526843e+05	2.965485e+05	3.056115e+05	2.917022e+05	2.888575e+05	2.845132e+05	2.833607e+05	2.829511e+05	2.856694e+05	2.878011e+05	2.909183e+05	2.926578e+05	2.923147e+05	2.881451e+05	2.797115e+05	2.592648e+05	2.388912e+05	2.061526e+05	1.730892e+05	1.443392e+05	1.243795e+05	1.105172e+05	9.816369e+04	9.837372e+04	1.002102e+05	1.151886e+05	1.724242e+05	2.351517e+05	2.405391e+05	2.423594e+05	2.426150e+05	2.444403e+05	2.445607e+05	2.436410e+05	2.442628e+05	2.431979e+05	2.428060e+05	2.420283e+05	2.406851e+05	2.398738e+05	2.384344e+05	2.368305e+05	2.352088e+05	2.336377e+05	2.315261e+05	2.302358e+05	2.281398e+05	2.266938e+05	2.258476e+05	2.240327e+05	2.234412e+05	2.221348e+05	2.215407e+05	2.221798e+05	2.212601e+05	2.223330e+05	2.224266e+05	2.234905e+05	2.257942e+05	2.266054e+05	2.295298e+05	2.310888e+05	2.333228e+05	2.370598e+05	2.389469e+05	2.416468e+05	2.441764e+05	2.458380e+05	2.477386e+05	2.491432e+05	2.500249e+05	2.511629e+05	2.515549e+05	2.516619e+05	2.521059e+05	2.519550e+05	2.519617e+05	2.520855e+05	2.520935e+05	2.524159e+05	2.528126e+05	2.530420e+05	2.537883e+05	2.540397e+05	2.546028e+05	2.552120e+05	2.556217e+05	2.560870e+05	2.564681e+05	2.567698e+05	2.570919e+05	2.573300e+05	2.576231e+05	2.578594e+05	2.582037e+05	2.581747e+05	2.584571e+05	2.588614e+05	2.535391e+05	2.646213e+05	3.135978e+05	3.024942e+05	3.083428e+05	3.085949e+05	3.100990e+05	3.110988e+05	3.120238e+05	3.131947e+05	3.139995e+05	3.150668e+05	3.161690e+05	3.172249e+05	3.192351e+05	3.195486e+05	3.222905e+05	3.232870e+05	3.229760e+05	3.251677e+05	3.228606e+05	3.243302e+05	3.226808e+05	3.171110e+05	3.141099e+05	3.077614e+05	2.999564e+05	2.933369e+05	2.820568e+05	2.726073e+05	2.667508e+05	2.560153e+05	2.502302e+05	2.423538e+05	2.369750e+05	2.360963e+05	2.327044e+05	2.342927e+05	2.357940e+05	2.385939e+05	2.435883e+05	2.460353e+05	2.497549e+05	2.529910e+05	2.557252e+05	2.589826e+05	2.609736e+05	2.627762e+05	2.639463e+05	2.648877e+05	2.656815e+05	2.661513e+05	2.667750e+05	2.669364e+05	2.675641e+05	2.686175e+05	2.692844e+05	2.704405e+05	2.717316e+05	2.725783e+05	2.735343e+05	2.741551e+05	2.737735e+05	2.741476e+05	2.729052e+05	2.694283e+05	2.666217e+05	2.640135e+05	2.588148e+05	2.491189e+05	2.292826e+05	2.145649e+05	2.126096e+05	2.125418e+05	2.213496e+05	2.315438e+05	2.346101e+05	2.425450e+05	2.447212e+05	2.519505e+05	2.625346e+05	2.660281e+05	2.742561e+05	2.808895e+05	2.864932e+05	2.943697e+05	2.991213e+05	3.044777e+05	3.097861e+05	3.138131e+05	3.173673e+05	3.205807e+05	3.228423e+05	3.259060e+05	3.284427e+05	3.318181e+05	3.360748e+05	3.419852e+05	3.449162e+05	3.621536e+05	
SCALARS Pressure double 1
LOOKUP_TABLE default
1.384339e+05	1.116669e+05	1.139356e+05	1.063060e+05	1.036822e+05	1.010320e+05	1.000335e+05	9.973979e+04	1.009695e+05	1.021669e+05	1.038530e+05	1.046500e+05	1.042134e+05	1.016530e+05	9.630085e+04	8.568194e+04	7.477254e+04	5.961269e+04	4.537523e+04	3.453788e+04	2.771655e+04	2.290028e+04	1.965634e+04	1.943716e+04	2.072730e+04	2.798189e+04	5.635230e+04	8.681972e+04	9.024332e+04	9.167466e+04	9.234607e+04	9.345742e+04	9.369371e+04	9.338373e+04	9.364806e+04	9.314872e+04	9.287089e+04	9.233901e+04	9.152182e+04	9.093600e+04	9.007331e+04	8.911355e+04	8.813813e+04	8.711299e+04	8.591919e+04	8.503953e+04	8.380299e+04	8.294243e+04	8.230981e+04	8.133146e+04	8.091476e+04	8.019062e+04	7.985843e+04	8.007069e+04	7.973438e+04	8.017849e+04	8.025389e+04	8.092950e+04	8.213009e+04	8.278769e+04	8.436030e+04	8.539842e+04	8.692101e+04	8.900865e+04	9.032834e+04	9.201861e+04	9.353047e+04	9.466532e+04	9.587161e+04	9.678803e+04	9.742095e+04	9.807916e+04	9.835828e+04	9.846742e+04	9.867756e+04	9.860026e+04	9.858620e+04	9.861741e+04	9.863876e+04	9.884832e+04	9.912940e+04	9.934830e+04	9.977891e+04	1.000085e+05	1.003556e+05	1.007017e+05	1.009747e+05	1.012711e+05	1.015266e+05	1.017483e+05	1.019707e+05	1.021439e+05	1.023319e+05	1.024846e+05	1.026749e+05	1.027281e+05	1.028972e+05	1.030787e+05	1.007919e+05	1.018758e+05	1.113752e+05	1.094803e+05	1.115759e+05	1.121031e+05	1.129152e+05	1.135292e+05	1.140885e+05	1.147605e+05	1.152816e+05	1.159020e+05	1.165736e+05	1.172369e+05	1.183411e+05	1.187226e+05	1.201124e+05	1.208572e+05	1.208153e+05	1.218418e+05	1.208738e+05	1.212877e+05	1.204408e+05	1.174344e+05	1.152528e+05	1.117359e+05	1.071961e+05	1.031903e+05	9.712026e+04	9.164277e+04	8.819140e+04	8.291713e+04	7.960132e+04	7.582288e+04	7.315705e+04	7.255943e+04	7.113501e+04	7.167623e+04	7.251431e+04	7.388710e+04	7.625808e+04	7.762401e+04	7.941279e+04	8.110076e+04	8.254004e+04	8.417253e+04	8.528935e+04	8.621321e+04	8.685116e+04	8.734886e+04	8.776926e+04	8.803438e+04	8.834992e+04	8.847846e+04	8.880583e+04	8.936231e+04	8.976785e+04	9.036273e+04	9.106706e+04	9.155406e+04	9.205189e+04	9.240612e+04	9.227001e+04	9.238530e+04	9.178357e+04	9.000535e+04	8.841946e+04	8.703877e+04	8.447288e+04	7.944829e+04	6.971735e+04	6.246630e+04	6.130234e+04	6.160429e+04	6.540151e+04	7.020094e+04	7.205312e+04	7.561046e+04	7.714171e+04	8.052155e+04	8.574838e+04	8.811828e+04	9.220883e+04	9.596239e+04	9.920220e+04	1.034589e+05	1.064433e+05	1.094905e+05	1.126005e+05	1.150989e+05	1.172953e+05	1.192843e+05	1.208300e+05	1.226961e+05	1.244237e+05	1.265841e+05	1.293881e+05	1.331512e+05	1.358061e+05	1.445933e+05	
SCALARS Temperature double 1
LOOKUP_TABLE default
2.981234e+02	2.893176e+02	2.872223e+02	2.824914e+02	2.793575e+02	2.771553e+02	2.759557e+02	2.756512e+02	2.762004e+02	2.770899e+02	2.782359e+02	2.785812e+02	2.779644e+02	2.758164e+02	2.708742e+02	2.627102e+02	2.521259e+02	2.372357e+02	2.196735e+02	2.042117e+02	1.927351e+02	1.815381e+02	1.764506e+02	1.744966e+02	1.812681e+02	2.067107e+02	2.605192e+02	2.851941e+02	2.885441e+02	2.902673e+02	2.915840e+02	2.925285e+02	2.929588e+02	2.930549e+02	2.931137e+02	2.929068e+02	2.926158e+02	2.920794e+02	2.913772e+02	2.907349e+02	2.899947e+02	2.891613e+02	2.882934e+02	2.872466e+02	2.862601e+02	2.852794e+02	2.841346e+02	2.833118e+02	2.825001e+02	2.816956e+02	2.811807e+02	2.805359e+02	2.802324e+02	2.801858e+02	2.801733e+02	2.803209e+02	2.804279e+02	2.811728e+02	2.820967e+02	2.830054e+02	2.842498e+02	2.853863e+02	2.870672e+02	2.887107e+02	2.901379e+02	2.916782e+02	2.929225e+02	2.940418e+02	2.950961e+02	2.959180e+02	2.965547e+02	2.970228e+02	2.972968e+02	2.974430e+02	2.975219e+02	2.974823e+02	2.974462e+02	2.974088e+02	2.974483e+02	2.976288e+02	2.979004e+02	2.981783e+02	2.984739e+02	2.987544e+02	2.990224e+02	2.992483e+02	2.994851e+02	2.997239e+02	2.999457e+02	3.001619e+02	3.003619e+02	3.005278e+02	3.006786e+02	3.008021e+02	3.009143e+02	3.010499e+02	3.011687e+02	3.012117e+02	3.008542e+02	2.939950e+02	2.771831e+02	2.810641e+02	2.810248e+02	2.818296e+02	2.823170e+02	2.827733e+02	2.831767e+02	2.836180e+02	2.840258e+02	2.844360e+02	2.849115e+02	2.853990e+02	2.860366e+02	2.865036e+02	2.871505e+02	2.877982e+02	2.879273e+02	2.882831e+02	2.881036e+02	2.878682e+02	2.874685e+02	2.858247e+02	2.839009e+02	2.817105e+02	2.784592e+02	2.752362e+02	2.708990e+02	2.660958e+02	2.627896e+02	2.587443e+02	2.552511e+02	2.520412e+02	2.494877e+02	2.486332e+02	2.476161e+02	2.477635e+02	2.487586e+02	2.500832e+02	2.521645e+02	2.536574e+02	2.551601e+02	2.567430e+02	2.580755e+02	2.594296e+02	2.605124e+02	2.612770e+02	2.618537e+02	2.622784e+02	2.626353e+02	2.628821e+02	2.631265e+02	2.632943e+02	2.635603e+02	2.640191e+02	2.644251e+02	2.648857e+02	2.654820e+02	2.659242e+02	2.663070e+02	2.666206e+02	2.666045e+02	2.665811e+02	2.661841e+02	2.648434e+02	2.633957e+02	2.622289e+02	2.602547e+02	2.557408e+02	2.466093e+02	2.384826e+02	2.367040e+02	2.376668e+02	2.412250e+02	2.460610e+02	2.485025e+02	2.513519e+02	2.534883e+02	2.561513e+02	2.603954e+02	2.631617e+02	2.661213e+02	2.693208e+02	2.720297e+02	2.750500e+02	2.775862e+02	2.797364e+02	2.819485e+02	2.838198e+02	2.854092e+02	2.868160e+02	2.880395e+02	2.892737e+02	2.905846e+02	2.920600e+02	2.940011e+02	2.963919e+02	2.987890e+02	3.017843e+02	
SCALARS Mach double 1
LOOKUP_TABLE default
2.609672e-01	4.715497e-01	5.103480e-01	5.903840e-01	6.391830e-01	6.719591e-01	6.893673e-01	6.937402e-01	6.858403e-01	6.729159e-01	6.560165e-01	6.508663e-01	6.600465e-01	6.913699e-01	7.602245e-01	8.667652e-01	9.963545e-01	1.169982e+00	1.370411e+00	1.548804e+00	1.685041e+00	1.822878e+00	1.887552e+00	1.912782e+00	1.826275e+00	1.519653e+00	8.942312e-01	5.457708e-01	4.861671e-01	4.530690e-01	4.263405e-01	4.062467e-01	3.967995e-01	3.946620e-01	3.933487e-01	3.979521e-01	4.043461e-01	4.159054e-01	4.306331e-01	4.437350e-01	4.584373e-01	4.745323e-01	4.908278e-01	5.099129e-01	5.273873e-01	5.443185e-01	5.635785e-01	5.771183e-01	5.902451e-01	6.030449e-01	6.111339e-01	6.211570e-01	6.258349e-01	6.265503e-01	6.267431e-01	6.244723e-01	6.228238e-01	6.112583e-01	5.966885e-01	5.820980e-01	5.616644e-01	5.424921e-01	5.131255e-01	4.830484e-01	4.556238e-01	4.243729e-01	3.976033e-01	3.720933e-01	3.465481e-01	3.253834e-01	3.080801e-01	2.947604e-01	2.866970e-01	2.823073e-01	2.799116e-01	2.811147e-01	2.822106e-01	2.833379e-01	2.821473e-01	2.766324e-01	2.681382e-01	2.591719e-01	2.493045e-01	2.395825e-01	2.299265e-01	2.214769e-01	2.122720e-01	2.025856e-01	1.931632e-01	1.835329e-01	1.741605e-01	1.659998e-01	1.582212e-01	1.515642e-01	1.452540e-01	1.372475e-01	1.298329e-01	1.270439e-01	1.486635e-01	3.731913e-01	6.715525e-01	6.129560e-01	6.135685e-01	6.009259e-01	5.931748e-01	5.858502e-01	5.793184e-01	5.721074e-01	5.653839e-01	5.585576e-01	5.505637e-01	5.422756e-01	5.312839e-01	5.231180e-01	5.116366e-01	4.999295e-01	4.975702e-01	4.910174e-01	4.943322e-01	4.986513e-01	5.059150e-01	5.349563e-01	5.674488e-01	6.028092e-01	6.526887e-01	6.996715e-01	7.598885e-01	8.234716e-01	8.657616e-01	9.162068e-01	9.588263e-01	9.973640e-01	1.027663e+00	1.037741e+00	1.049698e+00	1.047967e+00	1.036263e+00	1.020622e+00	9.958934e-01	9.780283e-01	9.599263e-01	9.407184e-01	9.244273e-01	9.077497e-01	8.943166e-01	8.847764e-01	8.775492e-01	8.722102e-01	8.677101e-01	8.645932e-01	8.615000e-01	8.593727e-01	8.559966e-01	8.501575e-01	8.449745e-01	8.390747e-01	8.314044e-01	8.256940e-01	8.207339e-01	8.166573e-01	8.168678e-01	8.171711e-01	8.223276e-01	8.396171e-01	8.580870e-01	8.728334e-01	8.975207e-01	9.528983e-01	1.061498e+00	1.155663e+00	1.176079e+00	1.165034e+00	1.124069e+00	1.067909e+00	1.039279e+00	1.005572e+00	9.800577e-01	9.479168e-01	8.957723e-01	8.610534e-01	8.231417e-01	7.810977e-01	7.444775e-01	7.023224e-01	6.656333e-01	6.334262e-01	5.990419e-01	5.687875e-01	5.421008e-01	5.175978e-01	4.955119e-01	4.723896e-01	4.467531e-01	4.163185e-01	3.730498e-01	3.125878e-01	2.383558e-01	8.138550e-02	
SCALARS Pressure_Coefficient double 1
LOOKUP_TABLE default