# vtk DataFile Version 3.0
vtk output
ASCII
DATASET UNSTRUCTURED_GRID
POINTS 1842 double
1.000000e+02	0.000000e+00	0.0	9.917900e+01	1.278772e+01	0.0	9.672949e+01	2.536546e+01	0.0	9.269168e+01	3.752670e+01	0.0	8.713187e+01	4.907176e+01	0.0	8.014136e+01	5.981105e+01	0.0	7.183494e+01	6.956826e+01	0.0	6.234898e+01	7.818315e+01	0.0	5.183926e+01	8.551428e+01	0.0	4.047833e+01	9.144126e+01	0.0	2.845276e+01	9.586679e+01	0.0	1.595999e+01	9.871818e+01	0.0	3.205158e+00	9.994862e+01	0.0	-9.602303e+00	9.953791e+01	0.0	-2.225209e+01	9.749279e+01	0.0	-3.453651e+01	9.384684e+01	0.0	-4.625383e+01	8.865993e+01	0.0	-5.721167e+01	8.201723e+01	0.0	-6.723009e+01	7.402780e+01	0.0	-7.614460e+01	6.482284e+01	0.0	-8.380881e+01	5.455349e+01	0.0	-9.009689e+01	4.338837e+01	0.0	-9.490557e+01	3.151082e+01	0.0	-9.815592e+01	1.911586e+01	0.0	-9.979454e+01	6.407022e+00	0.0	-9.979454e+01	-6.407022e+00	0.0	-9.815592e+01	-1.911586e+01	0.0	-9.490557e+01	-3.151082e+01	0.0	-9.009689e+01	-4.338837e+01	0.0	-8.380881e+01	-5.455349e+01	0.0	-7.614460e+01	-6.482284e+01	0.0	-6.723009e+01	-7.402780e+01	0.0	-5.721167e+01	-8.201723e+01	0.0	-4.625383e+01	-8.865993e+01	0.0	-3.453651e+01	-9.384684e+01	0.0	-2.225209e+01	-9.749279e+01	0.0	-9.602303e+00	-9.953791e+01	0.0	3.205158e+00	-9.994862e+01	0.0	1.595999e+01	-9.871818e+01	0.0	2.845276e+01	-9.586679e+01	0.0	4.047833e+01	-9.144126e+01	0.0	5.183926e+01	-8.551428e+01	0.0	6.234898e+01	-7.818315e+01	0.0	7.183494e+01	-6.956826e+01	0.0	8.014136e+01	-5.981105e+01	0.0	8.713187e+01	-4.907176e+01	0.0	9.269168e+01	-3.752670e+01	0.0	9.672949e+01	-2.536546e+01	0.0	9.917900e+01	-1.278772e+01	0.0	0.000000e+00	0.000000e+00	0.0	2.999305e-03	4.000521e-03	0.0	6.110689e-03	8.150537e-03	0.0	1.052538e-02	1.119404e-02	0.0	1.518245e-02	1.425627e-02	0.0	2.053623e-02	1.642647e-02	0.0	2.609429e-02	1.863812e-02	0.0	3.199353e-02	2.052701e-02	0.0	3.810043e-02	2.247413e-02	0.0	4.442824e-02	2.445230e-02	0.0	5.095041e-02	2.655719e-02	0.0	5.764700e-02	2.886256e-02	0.0	6.448412e-02	3.145232e-02	0.0	7.146382e-02	3.433123e-02	0.0	7.853833e-02	3.758516e-02	0.0	8.578683e-02	4.104340e-02	0.0	9.334467e-02	4.441513e-02	0.0	1.011700e-01	4.778124e-02	0.0	1.094824e-01	5.058348e-02	0.0	1.180771e-01	5.329948e-02	0.0	1.271603e-01	5.517155e-02	0.0	1.364905e-01	5.709452e-02	0.0	1.461982e-01	5.825861e-02	0.0	1.561611e-01	5.941941e-02	0.0	1.663996e-01	6.032307e-02	0.0	1.769058e-01	6.103623e-02	0.0	1.876597e-01	6.174542e-02	0.0	1.986702e-01	6.223838e-02	0.0	2.099211e-01	6.274211e-02	0.0	2.214108e-01	6.319262e-02	0.0	2.331341e-01	6.359931e-02	0.0	2.450835e-01	6.401236e-02	0.0	2.572554e-01	6.434292e-02	0.0	2.696402e-01	6.467927e-02	0.0	2.822312e-01	6.498359e-02	0.0	2.950201e-01	6.525345e-02	0.0	3.079970e-01	6.552729e-02	0.0	3.211537e-01	6.572928e-02	0.0	3.344785e-01	6.593201e-02	0.0	3.479612e-01	6.606746e-02	0.0	3.615903e-01	6.612589e-02	0.0	3.753530e-01	6.618489e-02	0.0	3.892357e-01	6.600965e-02	0.0	4.032264e-01	6.582729e-02	0.0	4.173075e-01	6.548137e-02	0.0	4.314649e-01	6.496301e-02	0.0	4.456887e-01	6.444031e-02	0.0	4.599434e-01	6.350573e-02	0.0	4.742353e-01	6.256872e-02	0.0	4.885291e-01	6.138156e-02	0.0	5.028114e-01	5.996411e-02	0.0	5.170844e-01	5.853216e-02	0.0	5.312723e-01	5.657283e-02	0.0	5.454234e-01	5.461860e-02	0.0	5.594855e-01	5.242988e-02	0.0	5.734477e-01	5.003000e-02	0.0	5.873304e-01	4.764377e-02	0.0	6.011276e-01	4.531766e-02	0.0	6.148183e-01	4.300974e-02	0.0	6.284319e-01	4.101472e-02	0.0	6.419631e-01	3.938276e-02	0.0	6.553496e-01	3.776824e-02	0.0	6.686632e-01	3.727414e-02	0.0	6.818153e-01	3.687260e-02	0.0	6.947868e-01	3.685218e-02	0.0	7.075672e-01	3.739334e-02	0.0	7.201506e-01	3.792616e-02	0.0	7.325206e-01	3.861553e-02	0.0	7.446769e-01	3.931574e-02	0.0	7.566214e-01	3.974906e-02	0.0	7.683517e-01	3.980000e-02	0.0	7.798489e-01	3.982051e-02	0.0	7.910571e-01	3.871921e-02	0.0	8.020259e-01	3.764145e-02	0.0	8.126635e-01	3.595190e-02	0.0	8.230284e-01	3.409233e-02	0.0	8.331127e-01	3.209794e-02	0.0	8.429167e-01	2.997919e-02	0.0	8.524791e-01	2.793485e-02	0.0	8.618107e-01	2.601897e-02	0.0	8.708954e-01	2.415381e-02	0.0	8.797581e-01	2.246435e-02	0.0	8.883799e-01	2.084819e-02	0.0	8.967617e-01	1.930381e-02	0.0	9.049096e-01	1.785360e-02	0.0	9.128165e-01	1.644627e-02	0.0	9.204857e-01	1.508458e-02	0.0	9.279197e-01	1.376536e-02	0.0	9.351194e-01	1.247490e-02	0.0	9.420866e-01	1.120363e-02	0.0	9.488292e-01	9.972846e-03	0.0	9.553457e-01	8.751894e-03	0.0	9.616458e-01	7.571454e-03	0.0	9.677301e-01	6.409424e-03	0.0	9.736064e-01	5.283251e-03	0.0	9.792766e-01	4.177873e-03	0.0	9.847475e-01	3.103984e-03	0.0	9.900229e-01	2.055035e-03	0.0	9.951066e-01	1.025664e-03	0.0	1.000000e+00	0.000000e+00	0.0	9.950064e-01	2.433594e-04	0.0	9.898227e-01	4.312079e-04	0.0	9.844454e-01	5.684208e-04	0.0	9.788701e-01	6.630872e-04	0.0	9.730926e-01	7.345044e-04	0.0	9.671080e-01	7.508376e-04	0.0	9.609122e-01	7.451586e-04	0.0	9.545006e-01	6.758229e-04	0.0	9.478690e-01	5.909740e-04	0.0	9.410145e-01	4.118405e-04	0.0	9.339314e-01	2.267327e-04	0.0	9.266192e-01	-6.300922e-05	0.0	9.190719e-01	-3.856012e-04	0.0	9.112879e-01	-7.698289e-04	0.0	9.032664e-01	-1.256207e-03	0.0	8.950001e-01	-1.757428e-03	0.0	8.864971e-01	-2.422894e-03	0.0	8.777470e-01	-3.129931e-03	0.0	8.687548e-01	-3.944976e-03	0.0	8.595232e-01	-4.910662e-03	0.0	8.500415e-01	-5.912648e-03	0.0	8.403369e-01	-7.184642e-03	0.0	8.303821e-01	-8.489442e-03	0.0	8.202019e-01	-9.995962e-03	0.0	8.097819e-01	-1.158986e-02	0.0	7.991300e-01	-1.330201e-02	0.0	7.882484e-01	-1.512756e-02	0.0	7.771319e-01	-1.701146e-02	0.0	7.657932e-01	-1.900213e-02	0.0	7.542257e-01	-2.103297e-02	0.0	7.424385e-01	-2.312384e-02	0.0	7.304351e-01	-2.525860e-02	0.0	7.182203e-01	-2.742466e-02	0.0	7.058000e-01	-2.961088e-02	0.0	6.931850e-01	-3.183137e-02	0.0	6.803760e-01	-3.403684e-02	0.0	6.673874e-01	-3.625411e-02	0.0	6.542304e-01	-3.848663e-02	0.0	6.409062e-01	-4.067530e-02	0.0	6.274378e-01	-4.288765e-02	0.0	6.138317e-01	-4.508841e-02	0.0	6.001023e-01	-4.728739e-02	0.0	5.862657e-01	-4.950171e-02	0.0	5.723323e-01	-5.171097e-02	0.0	5.583190e-01	-5.393289e-02	0.0	5.442406e-01	-5.616931e-02	0.0	5.301112e-01	-5.841706e-02	0.0	5.159450e-01	-6.067165e-02	0.0	5.017594e-01	-6.294718e-02	0.0	4.875664e-01	-6.522389e-02	0.0	4.733828e-01	-6.751226e-02	0.0	4.592232e-01	-6.980775e-02	0.0	4.451007e-01	-7.209796e-02	0.0	4.310324e-01	-7.439784e-02	0.0	4.170300e-01	-7.668696e-02	0.0	4.030876e-01	-7.883511e-02	0.0	3.892211e-01	-8.085399e-02	0.0	3.754603e-01	-8.284456e-02	0.0	3.617295e-01	-8.404228e-02	0.0	3.481322e-01	-8.522835e-02	0.0	3.346552e-01	-8.568970e-02	0.0	3.213118e-01	-8.547811e-02	0.0	3.081387e-01	-8.524732e-02	0.0	2.952814e-01	-8.334324e-02	0.0	2.826107e-01	-8.146679e-02	0.0	2.702416e-01	-7.907742e-02	0.0	2.581916e-01	-7.612965e-02	0.0	2.463491e-01	-7.323264e-02	0.0	2.348300e-01	-6.997785e-02	0.0	2.235444e-01	-6.672683e-02	0.0	2.124736e-01	-6.357062e-02	0.0	2.016032e-01	-6.057711e-02	0.0	1.909655e-01	-5.764767e-02	0.0	1.805160e-01	-5.496736e-02	0.0	1.702744e-01	-5.247202e-02	0.0	1.602755e-01	-5.003581e-02	0.0	1.504749e-01	-4.785637e-02	0.0	1.409196e-01	-4.573704e-02	0.0	1.316044e-01	-4.370359e-02	0.0	1.225249e-01	-4.177585e-02	0.0	1.136920e-01	-3.990049e-02	0.0	1.051073e-01	-3.806540e-02	0.0	9.676727e-02	-3.627957e-02	0.0	8.867283e-02	-3.452950e-02	0.0	8.082684e-02	-3.279109e-02	0.0	7.321764e-02	-3.110516e-02	0.0	6.586218e-02	-2.938398e-02	0.0	5.873981e-02	-2.770288e-02	0.0	5.186955e-02	-2.597180e-02	0.0	4.523803e-02	-2.422844e-02	0.0	3.887389e-02	-2.236886e-02	0.0	3.276014e-02	-2.043641e-02	0.0	2.697961e-02	-1.821748e-02	0.0	2.145927e-02	-1.591196e-02	0.0	1.640054e-02	-1.312013e-02	0.0	1.166838e-02	-1.018759e-02	0.0	7.285977e-03	-7.068355e-03	0.0	3.358586e-03	-3.683347e-03	0.0	7.942422e-01	-2.208867e-02	0.0	8.036022e-01	-2.028341e-02	0.0	8.416883e+01	2.964665e+01	0.0	8.107139e+01	2.068272e+01	0.0	8.922660e+01	1.840744e+01	0.0	7.655657e+01	-1.335407e+01	0.0	7.842499e+01	-2.465659e+01	0.0	8.752681e+01	-1.780602e+01	0.0	8.658769e+01	-4.418472e+00	0.0	3.771851e+01	2.111331e+01	0.0	4.653582e+01	2.852473e+01	0.0	3.847095e+01	3.647282e+01	0.0	7.345071e+01	2.534280e+01	0.0	6.798475e+01	-3.264973e+01	0.0	7.547377e+01	-4.260994e+01	0.0	8.164168e+01	-3.531279e+01	0.0	8.741970e+01	-2.802609e+01	0.0	5.368470e+01	3.183121e+01	0.0	5.608447e+01	3.879564e+01	0.0	4.876027e+01	3.571925e+01	0.0	5.636844e+01	-6.322725e+01	0.0	5.514044e+01	-5.304876e+01	0.0	4.720227e+01	-6.385611e+01	0.0	6.814074e+01	5.903450e+01	0.0	7.336401e+01	4.813266e+01	0.0	5.754740e+01	6.586468e+01	0.0	4.442305e+01	-7.362464e+01	0.0	5.429404e+01	-7.214729e+01	0.0	6.580291e+01	-4.538245e+01	0.0	5.156433e+01	7.533803e+01	0.0	3.588475e+01	7.351480e+01	0.0	2.743178e+01	7.490555e+01	0.0	3.192395e+01	6.577819e+01	0.0	6.275404e+01	-6.715687e+01	0.0	2.725384e+01	8.510942e+01	0.0	3.479187e+01	8.079196e+01	0.0	3.139486e+01	-6.611105e+01	0.0	2.639007e+01	-7.876130e+01	0.0	3.738481e+01	-8.049445e+01	0.0	-1.061924e+01	5.222289e+01	0.0	-1.105602e+01	4.292725e+01	0.0	-2.156348e+00	4.592551e+01	0.0	2.256030e+01	4.812458e+01	0.0	1.583201e+01	5.553553e+01	0.0	1.480722e+01	4.402505e+01	0.0	1.879947e+01	8.970269e+01	0.0	1.431606e+01	7.856091e+01	0.0	4.077095e+00	5.378916e+00	0.0	2.101443e+00	3.901925e+00	0.0	3.500919e+00	2.844478e+00	0.0	3.149356e+00	2.364715e-01	0.0	2.708383e+00	8.091214e-01	0.0	2.403228e+00	3.175109e-01	0.0	1.551619e+00	5.422564e-01	0.0	1.908932e+00	3.330485e-01	0.0	1.993236e+00	9.025906e-01	0.0	1.000469e+00	-9.464891e-02	0.0	1.035828e+00	-1.151847e-01	0.0	1.030777e+00	-7.755282e-02	0.0	1.191956e+00	1.813587e-01	0.0	1.095821e+00	2.097081e-01	0.0	1.113132e+00	1.252747e-01	0.0	1.029306e+00	-1.935191e-02	0.0	1.022164e+00	-3.189548e-02	0.0	1.043504e+00	-3.105771e-02	0.0	8.348241e-01	-6.587791e-02	0.0	8.291020e-01	-9.354476e-02	0.0	8.538620e-01	-7.904844e-02	0.0	8.482765e-01	-1.517187e-02	0.0	8.462229e-01	-2.450822e-02	0.0	8.558213e-01	-2.263324e-02	0.0	7.554376e-01	2.236035e-01	0.0	7.767934e-01	3.304579e-01	0.0	6.790643e-01	2.740336e-01	0.0	8.655093e-01	-1.028259e-02	0.0	8.736059e-01	-1.069584e-02	0.0	9.173557e-01	-7.107028e-03	0.0	9.239271e-01	-1.15
[...]
POINT_DATA 1842

SCALARS Density double 1
LOOKUP_TABLE default
1.291615e+00	1.291646e+00	1.292010e+00	1.292165e+00	1.292097e+00	1.292009e+00	1.291956e+00	1.291892e+00	1.291816e+00	1.291752e+00	1.291696e+00	1.291669e+00	1.291679e+00	1.291737e+00	1.291837e+00	1.291936e+00	1.292031e+00	1.292101e+00	1.292158e+00	1.292200e+00	1.292229e+00	1.292254e+00	1.292270e+00	1.292286e+00	1.292297e+00	1.292310e+00	1.292323e+00	1.292339e+00	1.292357e+00	1.292382e+00	1.292414e+00	1.292454e+00	1.292509e+00	1.292574e+00	1.292655e+00	1.292747e+00	1.292842e+00	1.292913e+00	1.292932e+00	1.292898e+00	1.292834e+00	1.292755e+00	1.292674e+00	1.292592e+00	1.292507e+00	1.292443e+00	1.292448e+00	1.292352e+00	1.291985e+00	1.568846e+00	1.236062e+00	1.201738e+00	1.088220e+00	1.060383e+00	1.067161e+00	1.144450e+00	1.185680e+00	1.228873e+00	1.251998e+00	1.272409e+00	1.284106e+00	1.284197e+00	1.271733e+00	1.240141e+00	1.175515e+00	1.107213e+00	1.016870e+00	9.381671e-01	8.579659e-01	7.944550e-01	7.453092e-01	6.994574e-01	6.897727e-01	6.771263e-01	6.744457e-01	6.725631e-01	6.700047e-01	6.763160e-01	6.801493e-01	6.863934e-01	6.906658e-01	6.939431e-01	6.995979e-01	7.034910e-01	7.089459e-01	7.138097e-01	7.180146e-01	7.224005e-01	7.223789e-01	7.250353e-01	7.201459e-01	7.143489e-01	7.126021e-01	7.036822e-01	7.010609e-01	6.870536e-01	6.728640e-01	6.636336e-01	6.443844e-01	6.358378e-01	6.448830e-01	8.306954e-01	1.138394e+00	1.200921e+00	1.210342e+00	1.225097e+00	1.241200e+00	1.258654e+00	1.274265e+00	1.279301e+00	1.293643e+00	1.292138e+00	1.274951e+00	1.273473e+00	1.251348e+00	1.222576e+00	1.197929e+00	1.158706e+00	1.114429e+00	1.085348e+00	1.036491e+00	1.025000e+00	1.055942e+00	1.079309e+00	1.121352e+00	1.152061e+00	1.180604e+00	1.206188e+00	1.219542e+00	1.231519e+00	1.240630e+00	1.244437e+00	1.250590e+00	1.254628e+00	1.257523e+00	1.261762e+00	1.265743e+00	1.269605e+00	1.274762e+00	1.279644e+00	1.285013e+00	1.291084e+00	1.296914e+00	1.303620e+00	1.310769e+00	1.318943e+00	1.331901e+00	1.342964e+00	1.338565e+00	1.422496e+00	1.390085e+00	1.388573e+00	1.392701e+00	1.391324e+00	1.392363e+00	1.392539e+00	1.393882e+00	1.393992e+00	1.394601e+00	1.395269e+00	1.394253e+00	1.395984e+00	1.394700e+00	1.395596e+00	1.396163e+00	1.394270e+00	1.395564e+00	1.392609e+00	1.393747e+00	1.391548e+00	1.387435e+00	1.384798e+00	1.378987e+00	1.374754e+00	1.368108e+00	1.362571e+00	1.356199e+00	1.349120e+00	1.342989e+00	1.336272e+00	1.329366e+00	1.323167e+00	1.316288e+00	1.309767e+00	1.304701e+00	1.297860e+00	1.292899e+00	1.288448e+00	1.283371e+00	1.279464e+00	1.274780e+00	1.270196e+00	1.265792e+00	1.260987e+00	1.255595e+00	1.250301e+00	1.243815e+00	1.236923e+00	1.230640e+00	1.222277e+00	1.213788e+00	1.210594e+00	1.207676e+00	1.183761e+00	9.262503e-01	7.290249e-01	6.972325e-01	7.163275e-01	7.444942e-01	7.978650e-01	8.198531e-01	9.098057e-01	1.011761e+00	1.046914e+00	1.116517e+00	1.165999e+00	1.206821e+00	1.257183e+00	1.293565e+00	1.317255e+00	1.339646e+00	1.357889e+00	1.365239e+00	1.376496e+00	1.383716e+00	1.385417e+00	1.391574e+00	1.394788e+00	1.397453e+00	1.401474e+00	1.405585e+00	1.409172e+00	1.414586e+00	1.418126e+00	1.423217e+00	1.428687e+00	1.433941e+00	1.439627e+00	1.447332e+00	1.454086e+00	1.469486e+00	1.486958e+00	1.513529e+00	1.549565e+00	1.594637e+00	1.608610e+00	1.700320e+00	1.366424e+00	1.371291e+00	1.292089e+00	1.291998e+00	1.291913e+00	1.292162e+00	1.292343e+00	1.292221e+00	1.291884e+00	1.291943e+00	1.291889e+00	1.291761e+00	1.292033e+00	1.292461e+00	1.292452e+00	1.292404e+00	1.292372e+00	1.291963e+00	1.291928e+00	1.291891e+00	1.292659e+00	1.292627e+00	1.292743e+00	1.291950e+00	1.292004e+00	1.291875e+00	1.292783e+00	1.292703e+00	1.292503e+00	1.291824e+00	1.291692e+00	1.291609e+00	1.291639e+00	1.292632e+00	1.291654e+00	1.291692e+00	1.292919e+00	1.292942e+00	1.292856e+00	1.291289e+00	1.291133e+00	1.291044e+00	1.291407e+00	1.291359e+00	1.291176e+00	1.291632e+00	1.291559e+00	1.286394e+00	1.279193e+00	1.287864e+00	1.286075e+00	1.290055e+00	1.284649e+00	1.293946e+00	1.290898e+00	1.290452e+00	1.370984e+00	1.358209e+00	1.362324e+00	1.306363e+00	1.303419e+00	1.313208e+00	1.359270e+00	1.364091e+00	1.353340e+00	1.380164e+00	1.373441e+00	1.381689e+00	1.389908e+00	1.388875e+00	1.390774e+00	1.225415e+00	1.248003e+00	1.240872e+00	1.393204e+00	1.393998e+00	1.395388e+00	1.395266e+00	1.395189e+00	1.395412e+00	1.395369e+00	1.395559e+00	1.392888e+00	1.392062e+00	1.390631e+00	1.347808e+00	1.172016e+00	1.204217e+00	1.218670e+00	8.776732e-01	8.235553e-01	1.148660e+00	1.192800e+00	1.079789e+00	1.084036e+00	1.125902e+00	1.070514e+00	9.614333e-01	1.030828e+00	9.472105e-01	1.013415e+00	1.158178e+00	7.591529e-01	7.621784e-01	7.127449e-01	7.122827e-01	1.257085e+00	1.264660e+00	1.264293e+00	1.208075e+00	1.226960e+00	1.097743e+00	1.110075e+00	1.075065e+00	1.175567e+00	1.183222e+00	1.151034e+00	1.156750e+00	1.167387e+00	1.131678e+00	1.272294e+00	1.264935e+00	1.270852e+00	1.236781e+00	1.229702e+00	1.271619e+00	1.251981e+00	1.197683e+00	1.178342e+00	1.393962e+00	1.393557e+00	1.394023e+00	1.390771e+00	1.385619e+00	1.387139e+00	1.060660e+00	1.286472e+00	1.282757e+00	1.287194e+00	1.150852e+00	1.119927e+00	1.280511e+00	6.810267e-01	6.910398e-01	6.730315e-01	1.265462e+00	1.253933e+00	1.280946e+00	1.251649e+00	1.245493e+00	1.259989e+00	1.291001e+00	1.290195e+00	1.289583e+00	1.267230e+00	1.256468e+00	1.247092e+00	1.238445e+00	1.250538e+00	1.215959e+00	1.221526e+00	1.219041e+00	8.770971e-01	1.192274e+00	1.148957e+00	1.361733e+00	1.350205e+00	1.352544e+00	1.393341e+00	1.394032e+00	1.254843e+00	1.257547e+00	1.259314e+00	1.266684e+00	1.267659e+00	1.262076e+00	1.395549e+00	1.255559e+00	1.262788e+00	1.283236e+00	1.284937e+00	1.292854e+00	1.287717e+00	1.272836e+00	1.278652e+00	1.279129e+00	1.295306e+00	1.289776e+00	1.292079e+00	1.395506e+00	1.395293e+00	1.395144e+00	1.395288e+00	1.395096e+00	1.399670e+00	1.284899e+00	1.290796e+00	1.283841e+00	1.302204e+00	1.309283e+00	1.304443e+00	1.305867e+00	1.294594e+00	1.300430e+00	1.234552e+00	1.247667e+00	1.251098e+00	1.370957e+00	1.339611e+00	1.318679e+00	1.306120e+00	1.318132e+00	1.375957e+00	1.372114e+00	1.360508e+00	1.228173e+00	1.222369e+00	1.217543e+00	1.208176e+00	1.226900e+00	1.237496e+00	1.236911e+00	1.175715e+00	1.194224e+00	1.195161e+00	1.207273e+00	1.168674e+00	1.182249e+00	1.207855e+00	6.762626e-01	6.426173e-01	6.764232e-01	6.977048e-01	9.413794e-01	7.101309e-01	7.054019e-01	6.482202e-01	7.078263e-01	7.469210e-01	7.470543e-01	7.567124e-01	6.927960e-01	7.355972e-01	7.219630e-01	7.194769e-01	7.109225e-01	7.215871e-01	7.397806e-01	7.388002e-01	7.331641e-01	1.285379e+00	1.287382e+00	1.284400e+00	1.281420e+00	1.274341e+00	7.308727e-01	7.312008e-01	7.430818e-01	7.447033e-01	7.340117e-01	7.242293e-01	7.164097e-01	7.207984e-01	1.291815e+00	1.291691e+00	7.264732e-01	1.002757e+00	8.422622e-01	9.393236e-01	6.883945e-01	6.922132e-01	6.970210e-01	6.982082e-01	6.880881e-01	6.841704e-01	6.784210e-01	7.049914e-01	7.033136e-01	7.206718e-01	1.291716e+00	6.838041e-01	7.412537e-01	1.291880e+00	7.096554e-01	6.894483e-01	1.045876e+00	1.128375e+00	1.163449e+00	1.252385e+00	1.226517e+00	1.281146e+00	1.263715e+00	1.277205e+00	1.272465e+00	1.281239e+00	1.279350e+00	1.291969e+00	1.292147e+00	1.291290e+00	1.291485e+00	1.290763e+00	1.291323e+00	1.291871e+00	1.292612e+00	1.292880e+00	1.292450e+00	1.292175e+00	1.292151e+00	1.292105e+00	1.318311e+00	1.286478e+00	1.287594e+00	1.292274e+00	1.292246e+00	1.292266e+00	1.292193e+00	1.292222e+00	1.292312e+00	1.292334e+00	1.292347e+00	1.292362e+00	1.292456e+00	1.292525e+00	1.292518e+00	1.292404e+00	1.292385e+00	1.292534e+00	1.292493e+00	1.292449e+00	1.292378e+00	1.292573e+00	1.294139e+00	1.295457e+00	1.296017e+00	1.292562e+00	1.296356e+00	1.299442e+00	1.299080e+00	1.301113e+00	1.304722e+00	1.303895e+00	1.292622e+00	1.292699e+00	1.293244e+00	1.293366e+00	1.294176e+00	1.292861e+00	1.292927e+00	1.292818e+00	1.293560e+00	1.293221e+00	1.293288e+00	1.556681e+00	1.586387e+00	1.595940e+00	1.313949e+00	1.322180e+00	1.318260e+00	1.293054e+00	1.292977e+00	1.293011e+00	1.591378e+00	1.610893e+00	1.626105e+00	1.610428e+00	1.654967e+00	1.507133e+00	1.528884e+00	1.516245e+00	1.392237e+00	1.395595e+00	1.391165e+00	1.396106e+00	1.407991e+00	1.405159e+00	1.408095e+00	1.402535e+00	1.404657e+00	1.408184e+00	1.412205e+00	1.388504e+00	1.383626e+00	1.429467e+00	1.424434e+00	1.425084e+00	1.419137e+00	1.443968e+00	1.435682e+00	1.438028e+00	1.442649e+00	1.449435e+00	1.378155e+00	1.379220e+00	1.448669e+00	1.439359e+00	1.482647e+00	1.477147e+00	1.493665e+00	1.541966e+00	1.523035e+00	1.504115e+00	1.493014e+00	1.458746e+00	1.449649e+00	1.432416e+00	1.294189e+00	1.294600e+00	1.295448e+00	1.370272e+00	1.367934e+00	1.377339e+00	1.292840e+00	1.292924e+00	1.292943e+00	1.370100e+00	1.361236e+00	1.372113e+00	1.322660e+00	1.293234e+00	1.293298e+00	1.293396e+00	1.290141e+00	1.282130e+00	1.304422e+00	1.269673e+00	1.233804e+00	1.261419e+00	1.262289e+00	1.213635e+00	1.282216e+00	1.294887e+00	1.305265e+00	1.328144e+00	1.099925e+00	1.053956e+00	1.101873e+00	1.292902e+00	1.292956e+00	1.059447e+00	1.013214e+00	1.296235e+00	1.296278e+00	1.298716e+00	9.611725e-01	8.931582e-01	8.112213e-01	7.594629e-01	7.557839e-01	7.229350e-01	1.026775e+00	1.210451e+00	9.957931e-01	8.160832e-01	7.597563e-01	1.220980e+00	1.123972e+00	1.224733e+00	1.176696e+00	1.208814e+00	1.101997e+00	1.239063e+00	1.045859e+00	1.159670e+00	1.225338e+00	1.218247e+00	1.225083e+00	1.297620e+00	1.292994e+00	1.311731e+00	1.238197e+00	1.240333e+00	1.232956e+00	1.245443e+00	1.265623e+00	1.266359e+00	1.259754e+00	1.258169e+00	1.253076e+00	1.273407e+00	1.267615e+00	1.271590e+00	1.267358e+00	1.227479e+00	1.275614e+00	1.282714e+00	1.276875e+00	1.295021e+00	1.293662e+00	1.296976e+00	1.300222e+00	1.316450e+00	1.308764e+00	1.314638e+00	1.301327e+00	1.320710e+00	1.311823e+00	1.316981e+00	1.325495e+00	1.331743e+00	1.334336e+00	1.323658e+00	1.307141e+00	1.307493e+00	1.309010e+00	1.341449e+00	1.352521e+00	1.353928e+00	1.386305e+00	1.371178e+00	1.363816e+00	1.366793e+00	1.375351e+00	1.292295e+00	1.268869e+00	1.295087e+00	1.323617e+00	7.076595e-01	6.878212e-01	6.829876e-01	1.292063e+00	1.292071e+00	1.292981e+00	1.293002e+00	1.292750e+00	1.394417e+00	1.293160e+00	1.292876e+00	1.292375e+00	1.292779e+00	1.292970e+00	1.292113e+00	1.292801e+00	1.292666e+00	1.292708e+00	1.291761e+00	1.291758e+00	1.291619e+00	1.291814e+00	1.291718e+00	1.291870e+00	1.292565e+00	1.292496e+00	1.292557e+00	1.291964e+00	1.291999e+00	1.292362e+00	1.293498e+00	1.293514e+00	1.299769e+00	1.240213e+00	1.273399e+00	1.292144e+00	1.292169e+00	1.292223e+00	1.309045e+00	1.291519e+00	1.291742e+00	1.291896e+00	1.289426e+00	1.288368e+00	1.290840e+00	1.293794e+00	1.293809e+00	1.293047e+00	1.292556e+00	1.292765e+00	1.292602e+00	1.292851e+00	1.293073e+00	1.292322e+00	1.292356e+00	1.292308e+00	1.292237e+00	1.291643e+00	1.291537e+00	1.293032e+00	1.292054e+00	1.292099e+00	1.291971e+00	1.291894e+00	1.291783e+00	1.291856e+00	1.291886e+00	1.291896e+00	1.292354e+00	1.292785e+00	1.292825e+00	1.292916e+00	1.293144e+00	1.292590e+00	1.292666e+00	1.291665e+00	1.291808e+00	1.291899e+00	1.292153e+00	1.292432e+00	1.240901e+00	1.195313e+00	1.188787e+00	1.285199e+00	1.290662e+00	1.291597e+00	1.291382e+00	1.293219e+00	1.293161e+00	1.291705e+00	1.291858e+00	1.291730e+00	1.292003e+00	1.292060e+00	1.292420e+00	1.292278e+00	1.292397e+00	1.292439e+00	1.290928e+00	1.294399e+00	1.294383e+00	1.291723e+00	1.292005e+00	1.291620e+00	1.293455e+00	1.294165e+00	1.293805e+00	1.295673e+00	1.294658e+00	1.292223e+00	1.292477e+00	1.291583e+00	1.291535e+00	1.291571e+00	1.292260e+00	1.292143e+00	1.292321e+00	1.292383e+00	1.292286e+00	1.292289e+00	1.292322e+00	1.292356e+00	1.292456e+00	1.291976e+00	1.292077e+00	1.293066e+00	1.292770e+00	1.292914e+00	1.292002e+00	1.291849e+00	1.291928e+00	1.293058e+00	1.292499e+00	1.292525e+00	1.292534e+00	1.292606e+00	1.291869e+00	1.292743e+00	1.293095e+00	1.279951e+00	1.283594e+00	1.287956e+00	1.291518e+00	1.291423e+00	1.291892e+00	1.292728e+00	1.292985e+00	1.292704e+00	1.291817e+00	1.290012e+00	1.290743e+00	1.292611e+00	1.292541e+00	1.291825e+00	1.291666e+00	1.292493e+00	1.292033e+00	1.292427e+00	1.292512e+00	1.292468e+00	1.292124e+00	1.292017e+00	1.292199e+00	1.291953e+00	1.291420e+00	1.291237e+00	1.291142e+00	1.291286e+00	1.291918e+00	1.291792e+00	1.293079e+00	1.292784e+00	1.291807e+00	1.291689e+00	1.293319e+00	1.291541e+00	1.291417e+00	1.292035e+00	1.293553e+00	1.292638e+00	1.291913e+00	1.291391e+00	1.291477e+00	1.292587e+00	1.292957e+00	1.292659e+00	1.393069e+00	1.392802e+00	1.303703e+00	1.305042e+00	1.306759e+00	1.292307e+00	1.290026e+00	1.288990e+00	1.291889e+00	1.293634e+00	1.293333e+00	1.291951e+00	1.290613e+00	1.292342e+00	1.292993e+00	1.291404e+00	1.300778e+00	1.298223e+00	1.313357e+00	1.290616e+00	1.290175e+00	1.291107e+00	1.295074e+00	1.295316e+00	1.296625e+00	1.295932e+00	1.512649e+00	1.471911e+00	1.496801e+00	1.291025e+00	1.290756e+00	1.291759e+00	1.288820e+00	1.290893e+00	1.289210e+00	1.292980e+00	1.288029e+00	1.290391e+00	1.298200e+00	1.297011e+00	1.290662e+00	1.289187e+00	1.295405e+00	1.298692e+00	1.301352e+00	1.298855e+00	1.292773e+00	1.290617e+00	1.293819e+00	1.301942e+00	1.296822e+00	1.298010e+00	1.293167e+00	1.291925e+00	1.297275e+00	1.281714e+00	1.280095e+00	1.290277e+00	1.286190e+00	1.302972e+00	1.223504e+00	1.238341e+00	1.260481e+00	1.290599e+00	1.294581e+00	1.294001e+00	1.291786e+00	1.294623e+00	1.291636e+00	7.497576e-01	7.550022e-01	1.289592e+00	1.288956e+00	1.288954e+00	1.268696e+00	1.279959e+00	1.567479e+00	1.550266e+00	1.572585e+00	1.301179e+00	1.285230e+00	1.293447e+00	1.375360e+00	1.364643e+00	1.301372e+00	1.300552e+00	1.301558e+00	1.295041e+00	1.287143e+00	1.212755e+00	1.187182e+00	1.213546e+00	1.232584e+00	1.274026e+00	1.266249e+00	1.283196e+00	1.288113e+00	1.296492e+00	1.263344e+00	1.282587e+00	1.292838e+00	1.303302e+00	1.297767e+00	1.308769e+00	1.315904e+00	1.308843e+00	1.196578e+00	1.230619e+00	1.279589e+00	1.306234e+00	1.305111e+00	1.264338e+00	1.272121e+00	1.304213e+00	1.300249e+00	1.306313e+00	1.299419e+00	1.200751e+00	1.297452e+00	1.218892e+00	1.248238e+00	1.239265e+00	1.309660e+00	1.302431e+00	1.294314e+00	1.309428e+00	1.300127e+00	1.307188e+00	1.356485e+00	1.348648e+00	1.349798e+00	1.309816e+00	1.187993e+00	1.222401e+00	1.322010e+00	1.309847e+00	1.469445e+00	1.457297e+00	1.458879e+00	1.288907e+00	1.322079e+00	1.316162e+00	1.245720e+00	1.205474e+00	1.311428e+00	1.390643e+00	1.390812e+00	1.343979e+00	1.329798e+00	1.328354e+00	1.325501e+00	1.307965e+00	1.316555e+00	1.308216e+00	1.288874e+00	1.314593e+00	1.315356e+00	1.337274e+00	1.330237e+00	1.262706e+00	1.304672e+00	1.317978e+00	1.292242e+00	1.274100e+00	1.307215e+00	1.371004e+00	1.342923e+00	9.649550e-01	9.063482e-01	1.137122e+00	1.093632e+00	1.285719e+00	1.291183e+00	1.390107e+00	1.382222e+00	1.389873e+00	1.331834e+00	1.315141e+00	1.307652e+00	1.277339e+00	1.271818e+00	1.241460e+00	1.332569e+00	1.316697e+00	1.288886e+00	1.302881e+00	1.342498e+00	1.338014e+00	1.279150e+00	1.216946e+00	1.122832e+00	1.382076e+00	1.363949e+00	1.351018e+00	1.299522e+00	1.299581e+00	1.301791e+00	1.329662e+00	1.328259e+00	1.292673e+00	1.279547e+00	1.316975e+00	1.314421e+00	1.321658e+00	1.310360e+00	1.312697e+00	1.330492e+00	1.089741e+00	1.064883e+00	1.164363e+00	7.304401e-01	7.349700e-01	7.263027e-01	1.326535e+00	1.255387e+00	1.051470e+00	1.280661e+00	1.266762e+00	1.289755e+00	1.294402e+00	1.346481e+00	1.366627e+00	1.060695e+00	1.302556e+00	1.298533e+00	1.302897e+00	1.300662e+00	1.259041e+00	1.014985e+00	1.262642e+00	1.272703e+00	1.301850e+00	1.334528e+00	1.287400e+00	1.331955e+00	1.335683e+00	1.311309e+00	1.345486e+00	1.342741e+00	1.327192e+00	1.309941e+00	1.356579e+00	1.421659e+00	1.397419e+00	1.389984e+00	1.339299e+00	1.341474e+00	1.350330e+00	1.295860e+00	1.180126e+00	1.154136e+00	1.230742e+00	1.394977e+00	1.395019e+00	1.325244e+00	1.292029e+00	1.308169e+00	1.366536e+00	1.234547e+00	1.349604e+00	1.368951e+00	1.351970e+00	9.457347e-01	1.284128e+00	1.357723e+00	1.367562e+00	1.372807e+00	7.057346e-01	7.035836e-01	8.965959e-01	1.242963e+00	1.236325e+00	1.281415e+00	1.278152e+00	1.048634e+00	1.199447e+00	1.419804e+00	1.415322e+00	1.444522e+00	1.343551e+00	8.589137e-01	8.238276e-01	1.391198e+00	1.342753e+00	1.322810e+00	1.346677e+00	1.311081e+00	1.315133e+00	1.323109e+00	1.356455e+00	1.363465e+00	1.128436e+00	1.191625e+00	1.123270e+00	1.222200e+00	1.240189e+00	1.289088e+00	1.281354e+00	1.285206e+00	1.277610e+00	8.108584e-01	1.323321e+00	1.368327e+00	1.378127e+00	1.586935e+00	1.557320e+00	1.332536e+00	8.023937e-01	7.328363e-01	1.309654e+00	1.326543e+00	7.581592e-01	1.053349e+00	1.002858e+00	9.459271e-01	1.242246e+00	1.310711e+00	1.305154e+00	1.222678e+00	1.191744e+00	1.334242e+00	1.356479e+00	1.324175e+00	1.245274e+00	1.232364e+00	1.225648e+00	1.171875e+00	1.113804e+00	1.366830e+00	1.392776e+00	1.384309e+00	1.328871e+00	1.361865e+00	1.386407e+00	1.222898e+00	1.222355e+00	1.229600e+00	1.278829e+00	1.275505e+00	1.255954e+00	1.389425e+00	9.931439e-01	1.096512e+00	8.433774e-01	8.894524e-01	1.321188e+00	1.315345e+00	9.215120e-01	1.370407e+00	1.493617e+00	9.364581e-01	7.644273e-01	1.327199e+00	1.316075e+00	1.248700e+00	1.270356e+00	1.279708e+00	7.961406e-01	1.411149e+00	1.095263e+00	1.180530e+00	1.359897e+00	1.343098e+00	1.342441e+00	1.316201e+00	1.395307e+00	1.262577e+00	1.266696e+00	1.237886e+00	1.271990e+00	1.343550e+00	1.413228e+00	1.372738e+00	1.422814e+00	1.432660e+00	1.385694e+00	7.643630e-01	7.703648e-01	1.324234e+00	1.329042e+00	1.339773e+00	1.316812e+00	1.320292e+00	1.365804e+00	1.007041e+00	1.082324e+00	8.511355e-01	1.249276e+00	1.463848e+00	1.441198e+00	1.317148e+00	1.298974e+00	1.286924e+00	1.279610e+00	1.299053e+00	1.239707e+00	1.215485e+00	1.277521e+00	1.245117e+00	1.233544e+00	1.253307e+00	1.220146e+00	1.365257e+00	1.420294e+00	1.122534e+00	9.329034e-01	1.033003e+00	1.404871e+00	1.454651e+00	1.313153e+00	1.305509e+00	1.281558e+00	1.282203e+00	1.355001e+00	1.347760e+00	1.357571e+00	1.384221e+00	1.378522e+00	1.278417e+00	1.215955e+00	7.378729e-01	7.358368e-01	8.008748e-01	7.718907e-01	8.720623e-01	1.464271e+00	1.480715e+00	1.483323e+00	7.196241e-01	7.222157e-01	7.127108e-01	7.291218e-01	8.032905e-01	7.700636e-01	7.332881e-01	7.460328e-01	1.332036e+00	1.353837e+00	1.347600e+00	1.236200e+00	1.256790e+00	1.234819e+00	1.213788e+00	1.398101e+00	1.242683e+00	1.260026e+00	1.127311e+00	1.067342e+00	1.145940e+00	1.324493e+00	1.331514e+00	1.330519e+00	1.335538e+00	1.391165e+00	9.519898e-01	1.226831e+00	1.186083e+00	1.235098e+00	1.210246e+00	1.435248e+00	1.412118e+00	1.441348e+00	1.314231e+00	1.352829e+00	9.767839e-01	1.388018e+00	1.410438e+00	1.384777e+00	1.370837e+00	1.292283e+00	1.384413e+00	1.379166e+00	1.375838e+00	1.465845e+00	1.469230e+00	1.373849e+00	1.314047e+00	7.911624e-01	7.642279e-01	8.441959e-01	7.927449e-01	7.943548e-01	8.107432e-01	1.446647e+00	1.203129e+00	1.186795e+00	1.121372e+00	1.130600e+00	1.095550e+00	1.192645e+00	1.220426e+00	1.120528e+00	1.282311e+00	1.305062e+00	1.273297e+00	1.277513e+00	1.264932e+00	7.272179e-01	7.559328e-01	1.323784e+00	1.323271e+00	1.259388e+00	1.258190e+00	1.258824e+00	1.378210e+00	1.370327e+00	1.351672e+00	7.077087e-01	7.096375e-01	7.083115e-01	7.031532e-01	1.423007e+00	1.422448e+00	1.434719e+00	1.328424e+00	1.334694e+00	1.341115e+00	1.342149e+00	7.429543e-01	8.031994e-01	1.106614e+00	1.251616e+00	1.199567e+00	1.147221e+00	1.336358e+00	1.394563e+00	1.393295e+00	1.383261e+00	7.459024e-01	1.238259e+00	1.230650e+00	1.236785e+00	1.250507e+00	1.250288e+00	1.245487e+00	1.267683e+00	1.489625e+00	1.512478e+00	1.506616e+00	1.436004e+00	1.462882e+00	7.221592e-01	7.363839e-01	1.290390e+00	1.256422e+00	1.265940e+00	1.319913e+00	1.270419e+00	7.432584e-01	7.419084e-01	7.388325e-01	1.279909e+00	1.291388e+00	1.280215e+00	1.330415e+00	1.326219e+00	1.380177e+00	7.103063e-01	7.105514e-01	8.358061e-01	9.040740e-01	7.972399e-01	6.630482e-01	1.393292e+00	1.402660e+00	1.393479e+00	1.401642e+00	1.159692e+00	1.394421e+00	1.393011e+00	1.394296e+00	1.394853e+00	9.186838e-01	1.389997e+00	1.387945e+00	1.387393e+00	1.394438e+00	1.168543e+00	1.323184e+00	1.086655e+00	1.007593e+00	1.137828e+00	7.235952e-01	1.350267e+00	1.300033