# vtk DataFile Version 3.0
vtk output
ASCII
DATASET UNSTRUCTURED_GRID
POINTS 198 double
0.000000e+00	0.000000e+00	0.0	2.999305e-03	4.000521e-03	0.0	6.110689e-03	8.150537e-03	0.0	1.052538e-02	1.119404e-02	0.0	1.518245e-02	1.425627e-02	0.0	2.053623e-02	1.642647e-02	0.0	2.609429e-02	1.863812e-02	0.0	3.199353e-02	2.052701e-02	0.0	3.810043e-02	2.247413e-02	0.0	4.442824e-02	2.445230e-02	0.0	5.095041e-02	2.655719e-02	0.0	5.764700e-02	2.886256e-02	0.0	6.448412e-02	3.145232e-02	0.0	7.146382e-02	3.433123e-02	0.0	7.853833e-02	3.758516e-02	0.0	8.578683e-02	4.104340e-02	0.0	9.334467e-02	4.441513e-02	0.0	1.011700e-01	4.778124e-02	0.0	1.094824e-01	5.058348e-02	0.0	1.180771e-01	5.329948e-02	0.0	1.271603e-01	5.517155e-02	0.0	1.364905e-01	5.709452e-02	0.0	1.461982e-01	5.825861e-02	0.0	1.561611e-01	5.941941e-02	0.0	1.663996e-01	6.032307e-02	0.0	1.769058e-01	6.103623e-02	0.0	1.876597e-01	6.174542e-02	0.0	1.986702e-01	6.223838e-02	0.0	2.099211e-01	6.274211e-02	0.0	2.214108e-01	6.319262e-02	0.0	2.331341e-01	6.359931e-02	0.0	2.450835e-01	6.401236e-02	0.0	2.572554e-01	6.434292e-02	0.0	2.696402e-01	6.467927e-02	0.0	2.822312e-01	6.498359e-02	0.0	2.950201e-01	6.525345e-02	0.0	3.079970e-01	6.552729e-02	0.0	3.211537e-01	6.572928e-02	0.0	3.344785e-01	6.593201e-02	0.0	3.479612e-01	6.606746e-02	0.0	3.615903e-01	6.612589e-02	0.0	3.753530e-01	6.618489e-02	0.0	3.892357e-01	6.600965e-02	0.0	4.032264e-01	6.582729e-02	0.0	4.173075e-01	6.548137e-02	0.0	4.314649e-01	6.496301e-02	0.0	4.456887e-01	6.444031e-02	0.0	4.599434e-01	6.350573e-02	0.0	4.742353e-01	6.256872e-02	0.0	4.885291e-01	6.138156e-02	0.0	5.028114e-01	5.996411e-02	0.0	5.170844e-01	5.853216e-02	0.0	5.312723e-01	5.657283e-02	0.0	5.454234e-01	5.461860e-02	0.0	5.594855e-01	5.242988e-02	0.0	5.734477e-01	5.003000e-02	0.0	5.873304e-01	4.764377e-02	0.0	6.011276e-01	4.531766e-02	0.0	6.148183e-01	4.300974e-02	0.0	6.284319e-01	4.101472e-02	0.0	6.419631e-01	3.938276e-02	0.0	6.553496e-01	3.776824e-02	0.0	6.686632e-01	3.727414e-02	0.0	6.818153e-01	3.687260e-02	0.0	6.947868e-01	3.685218e-02	0.0	7.075672e-01	3.739334e-02	0.0	7.201506e-01	3.792616e-02	0.0	7.325206e-01	3.861553e-02	0.0	7.446769e-01	3.931574e-02	0.0	7.566214e-01	3.974906e-02	0.0	7.683517e-01	3.980000e-02	0.0	7.798489e-01	3.982051e-02	0.0	7.910571e-01	3.871921e-02	0.0	8.020259e-01	3.764145e-02	0.0	8.126635e-01	3.595190e-02	0.0	8.230284e-01	3.409233e-02	0.0	8.331127e-01	3.209794e-02	0.0	8.429167e-01	2.997919e-02	0.0	8.524791e-01	2.793485e-02	0.0	8.618107e-01	2.601897e-02	0.0	8.708954e-01	2.415381e-02	0.0	8.797581e-01	2.246435e-02	0.0	8.883799e-01	2.084819e-02	0.0	8.967617e-01	1.930381e-02	0.0	9.049096e-01	1.785360e-02	0.0	9.128165e-01	1.644627e-02	0.0	9.204857e-01	1.508458e-02	0.0	9.279197e-01	1.376536e-02	0.0	9.351194e-01	1.247490e-02	0.0	9.420866e-01	1.120363e-02	0.0	9.488292e-01	9.972846e-03	0.0	9.553457e-01	8.751894e-03	0.0	9.616458e-01	7.571454e-03	0.0	9.677301e-01	6.409424e-03	0.0	9.736064e-01	5.283251e-03	0.0	9.792766e-01	4.177873e-03	0.0	9.847475e-01	3.103984e-03	0.0	9.900229e-01	2.055035e-03	0.0	9.951066e-01	1.025664e-03	0.0	1.000000e+00	0.000000e+00	0.0	9.950064e-01	2.433594e-04	0.0	9.898227e-01	4.312079e-04	0.0	9.844454e-01	5.684208e-04	0.0	9.788701e-01	6.630872e-04	0.0	9.730926e-01	7.345044e-04	0.0	9.671080e-01	7.508376e-04	0.0	9.609122e-01	7.451586e-04	0.0	9.545006e-01	6.758229e-04	0.0	9.478690e-01	5.909740e-04	0.0	9.410145e-01	4.118405e-04	0.0	9.339314e-01	2.267327e-04	0.0	9.266192e-01	-6.300922e-05	0.0	9.190719e-01	-3.856012e-04	0.0	9.112879e-01	-7.698289e-04	0.0	9.032664e-01	-1.256207e-03	0.0	8.950001e-01	-1.757428e-03	0.0	8.864971e-01	-2.422894e-03	0.0	8.777470e-01	-3.129931e-03	0.0	8.687548e-01	-3.944976e-03	0.0	8.595232e-01	-4.910662e-03	0.0	8.500415e-01	-5.912648e-03	0.0	8.403369e-01	-7.184642e-03	0.0	8.303821e-01	-8.489442e-03	0.0	8.202019e-01	-9.995962e-03	0.0	8.097819e-01	-1.158986e-02	0.0	7.991300e-01	-1.330201e-02	0.0	7.882484e-01	-1.512756e-02	0.0	7.771319e-01	-1.701146e-02	0.0	7.657932e-01	-1.900213e-02	0.0	7.542257e-01	-2.103297e-02	0.0	7.424385e-01	-2.312384e-02	0.0	7.304351e-01	-2.525860e-02	0.0	7.182203e-01	-2.742466e-02	0.0	7.058000e-01	-2.961088e-02	0.0	6.931850e-01	-3.183137e-02	0.0	6.803760e-01	-3.403684e-02	0.0	6.673874e-01	-3.625411e-02	0.0	6.542304e-01	-3.848663e-02	0.0	6.409062e-01	-4.067530e-02	0.0	6.274378e-01	-4.288765e-02	0.0	6.138317e-01	-4.508841e-02	0.0	6.001023e-01	-4.728739e-02	0.0	5.862657e-01	-4.950171e-02	0.0	5.723323e-01	-5.171097e-02	0.0	5.583190e-01	-5.393289e-02	0.0	5.442406e-01	-5.616931e-02	0.0	5.301112e-01	-5.841706e-02	0.0	5.159450e-01	-6.067165e-02	0.0	5.017594e-01	-6.294718e-02	0.0	4.875664e-01	-6.522389e-02	0.0	4.733828e-01	-6.751226e-02	0.0	4.592232e-01	-6.980775e-02	0.0	4.451007e-01	-7.209796e-02	0.0	4.310324e-01	-7.439784e-02	0.0	4.170300e-01	-7.668696e-02	0.0	4.030876e-01	-7.883511e-02	0.0	3.892211e-01	-8.085399e-02	0.0	3.754603e-01	-8.284456e-02	0.0	3.617295e-01	-8.404228e-02	0.0	3.481322e-01	-8.522835e-02	0.0	3.346552e-01	-8.568970e-02	0.0	3.213118e-01	-8.547811e-02	0.0	3.081387e-01	-8.524732e-02	0.0	2.952814e-01	-8.334324e-02	0.0	2.826107e-01	-8.146679e-02	0.0	2.702416e-01	-7.907742e-02	0.0	2.581916e-01	-7.612965e-02	0.0	2.463491e-01	-7.323264e-02	0.0	2.348300e-01	-6.997785e-02	0.0	2.235444e-01	-6.672683e-02	0.0	2.124736e-01	-6.357062e-02	0.0	2.016032e-01	-6.057711e-02	0.0	1.909655e-01	-5.764767e-02	0.0	1.805160e-01	-5.496736e-02	0.0	1.702744e-01	-5.247202e-02	0.0	1.602755e-01	-5.003581e-02	0.0	1.504749e-01	-4.785637e-02	0.0	1.409196e-01	-4.573704e-02	0.0	1.316044e-01	-4.370359e-02	0.0	1.225249e-01	-4.177585e-02	0.0	1.136920e-01	-3.990049e-02	0.0	1.051073e-01	-3.806540e-02	0.0	9.676727e-02	-3.627957e-02	0.0	8.867283e-02	-3.452950e-02	0.0	8.082684e-02	-3.279109e-02	0.0	7.321764e-02	-3.110516e-02	0.0	6.586218e-02	-2.938398e-02	0.0	5.873981e-02	-2.770288e-02	0.0	5.186955e-02	-2.597180e-02	0.0	4.523803e-02	-2.422844e-02	0.0	3.887389e-02	-2.236886e-02	0.0	3.276014e-02	-2.043641e-02	0.0	2.697961e-02	-1.821748e-02	0.0	2.145927e-02	-1.591196e-02	0.0	1.640054e-02	-1.312013e-02	0.0	1.166838e-02	-1.018759e-02	0.0	7.285977e-03	-7.068355e-03	0.0	3.358586e-03	-3.683347e-03	0.0	
CELLS 198	594
2	60	61	2	61	62	2	62	63	2	63	64	2	64	65	2	65	66	2	66	67	2	67	68	2	68	69	2	69	70	2	70	71	2	71	72	2	72	73	2	73	74	2	74	75	2	75	76	2	76	77	2	77	78	2	78	79	2	79	80	2	80	81	2	81	82	2	82	83	2	83	84	2	84	85	2	85	86	2	86	87	2	87	88	2	88	89	2	89	90	2	90	91	2	91	92	2	92	93	2	93	94	2	94	95	2	95	96	2	96	97	2	97	98	2	98	99	2	99	100	2	100	101	2	101	102	2	102	103	2	103	104	2	104	105	2	105	106	2	106	107	2	107	108	2	108	109	2	109	110	2	110	111	2	111	112	2	112	113	2	113	114	2	114	115	2	115	116	2	116	117	2	117	118	2	118	119	2	119	120	2	120	121	2	121	122	2	122	123	2	123	124	2	124	125	2	125	126	2	126	127	2	127	128	2	128	129	2	129	130	2	130	131	2	131	132	2	132	133	2	133	134	2	134	135	2	135	136	2	136	137	2	137	138	2	138	139	2	139	140	2	140	141	2	141	142	2	142	143	2	143	144	2	144	145	2	145	146	2	146	147	2	147	148	2	148	149	2	149	150	2	150	151	2	151	152	2	152	153	2	153	154	2	154	155	2	155	156	2	156	157	2	157	158	2	158	159	2	159	160	2	160	161	2	161	162	2	162	163	2	163	164	2	164	165	2	165	166	2	166	167	2	167	168	2	168	169	2	169	170	2	170	171	2	171	172	2	172	173	2	173	174	2	174	175	2	175	176	2	176	177	2	177	178	2	178	179	2	179	180	2	180	181	2	181	182	2	182	183	2	183	184	2	184	185	2	185	186	2	186	187	2	187	188	2	188	189	2	189	190	2	190	191	2	191	192	2	0	1	2	1	2	2	2	3	2	3	4	2	4	5	2	5	6	2	6	7	2	7	8	2	8	9	2	9	10	2	10	11	2	11	12	2	12	13	2	13	14	2	14	15	2	15	16	2	16	17	2	17	18	2	18	19	2	19	20	2	20	21	2	21	22	2	22	23	2	23	24	2	24	25	2	25	26	2	26	27	2	27	28	2	28	29	2	29	30	2	30	31	2	31	32	2	32	33	2	33	34	2	34	35	2	35	36	2	36	37	2	37	38	2	38	39	2	39	40	2	40	41	2	41	42	2	42	43	2	43	44	2	44	45	2	45	46	2	46	47	2	47	48	2	48	49	2	49	50	2	50	51	2	51	52	2	52	53	2	53	54	2	54	55	2	55	56	2	56	57	2	57	58	2	58	59	2	59	60	2	192	193	2	193	194	2	194	195	2	195	196	2	196	197	2	197	0	
CELL_TYPES 198
3	3	3	3	3	3	3	3	3	3	3	3	3	3	3	3	3	3	3	3	3	3	3	3	3	3	3	3	3	3	3	3	3	3	3	3	3	3	3	3	3	3	3	3	3	3	3	3	3	3	3	3	3	3	3	3	3	3	3	3	3	3	3	3	3	3	3	3	3	3	3	3	3	3	3	3	3	3	3	3	3	3	3	3	3	3	3	3	3	3	3	3	3	3	3	3	3	3	3	3	3	3	3	3	3	3	3	3	3	3	3	3	3	3	3	3	3	3	3	3	3	3	3	3	3	3	3	3	3	3	3	3	3	3	3	3	3	3	3	3	3	3	3	3	3	3	3	3	3	3	3	3	3	3	3	3	3	3	3	3	3	3	3	3	3	3	3	3	3	3	3	3	3	3	3	3	3	3	3	3	3	3	3	3	3	3	3	3	3	3	3	3	3	3	3	3	3	3	
POINT_DATA 198

SCALARS Density double 1
LOOKUP_TABLE default
1.568846e+00	1.236062e+00	1.201738e+00	1.088220e+00	1.060383e+00	1.067161e+00	1.144450e+00	1.185680e+00	1.228873e+00	1.251998e+00	1.272409e+00	1.284106e+00	1.284197e+00	1.271733e+00	1.240141e+00	1.175515e+00	1.107213e+00	1.016870e+00	9.381671e-01	8.579659e-01	7.944550e-01	7.453092e-01	6.994574e-01	6.897727e-01	6.771263e-01	6.744457e-01	6.725631e-01	6.700047e-01	6.763160e-01	6.801493e-01	6.863934e-01	6.906658e-01	6.939431e-01	6.995979e-01	7.034910e-01	7.089459e-01	7.138097e-01	7.180146e-01	7.224005e-01	7.223789e-01	7.250353e-01	7.201459e-01	7.143489e-01	7.126021e-01	7.036822e-01	7.010609e-01	6.870536e-01	6.728640e-01	6.636336e-01	6.443844e-01	6.358378e-01	6.448830e-01	8.306954e-01	1.138394e+00	1.200921e+00	1.210342e+00	1.225097e+00	1.241200e+00	1.258654e+00	1.274265e+00	1.279301e+00	1.293643e+00	1.292138e+00	1.274951e+00	1.273473e+00	1.251348e+00	1.222576e+00	1.197929e+00	1.158706e+00	1.114429e+00	1.085348e+00	1.036491e+00	1.025000e+00	1.055942e+00	1.079309e+00	1.121352e+00	1.152061e+00	1.180604e+00	1.206188e+00	1.219542e+00	1.231519e+00	1.240630e+00	1.244437e+00	1.250590e+00	1.254628e+00	1.257523e+00	1.261762e+00	1.265743e+00	1.269605e+00	1.274762e+00	1.279644e+00	1.285013e+00	1.291084e+00	1.296914e+00	1.303620e+00	1.310769e+00	1.318943e+00	1.331901e+00	1.342964e+00	1.338565e+00	1.422496e+00	1.390085e+00	1.388573e+00	1.392701e+00	1.391324e+00	1.392363e+00	1.392539e+00	1.393882e+00	1.393992e+00	1.394601e+00	1.395269e+00	1.394253e+00	1.395984e+00	1.394700e+00	1.395596e+00	1.396163e+00	1.394270e+00	1.395564e+00	1.392609e+00	1.393747e+00	1.391548e+00	1.387435e+00	1.384798e+00	1.378987e+00	1.374754e+00	1.368108e+00	1.362571e+00	1.356199e+00	1.349120e+00	1.342989e+00	1.336272e+00	1.329366e+00	1.323167e+00	1.316288e+00	1.309767e+00	1.304701e+00	1.297860e+00	1.292899e+00	1.288448e+00	1.283371e+00	1.279464e+00	1.274780e+00	1.270196e+00	1.265792e+00	1.260987e+00	1.255595e+00	1.250301e+00	1.243815e+00	1.236923e+00	1.230640e+00	1.222277e+00	1.213788e+00	1.210594e+00	1.207676e+00	1.183761e+00	9.262503e-01	7.290249e-01	6.972325e-01	7.163275e-01	7.444942e-01	7.978650e-01	8.198531e-01	9.098057e-01	1.011761e+00	1.046914e+00	1.116517e+00	1.165999e+00	1.206821e+00	1.257183e+00	1.293565e+00	1.317255e+00	1.339646e+00	1.357889e+00	1.365239e+00	1.376496e+00	1.383716e+00	1.385417e+00	1.391574e+00	1.394788e+00	1.397453e+00	1.401474e+00	1.405585e+00	1.409172e+00	1.414586e+00	1.418126e+00	1.423217e+00	1.428687e+00	1.433941e+00	1.439627e+00	1.447332e+00	1.454086e+00	1.469486e+00	1.486958e+00	1.513529e+00	1.549565e+00	1.594637e+00	1.608610e+00	1.700320e+00	
VECTORS Momentum double
5.008963e-01	1.881140e+02	0.0	1.493764e+02	1.937758e+02	0.0	2.023301e+02	1.948868e+02	0.0	2.456066e+02	1.651507e+02	0.0	2.681703e+02	1.403166e+02	0.0	2.762621e+02	1.100729e+02	0.0	2.818573e+02	1.009770e+02	0.0	2.777224e+02	8.891329e+01	0.0	2.733850e+02	8.642828e+01	0.0	2.681692e+02	8.523683e+01	0.0	2.641259e+02	8.803175e+01	0.0	2.611442e+02	9.434669e+01	0.0	2.590927e+02	1.024422e+02	0.0	2.607927e+02	1.137544e+02	0.0	2.687970e+02	1.257476e+02	0.0	2.792110e+02	1.288800e+02	0.0	2.907855e+02	1.273383e+02	0.0	2.989034e+02	1.142988e+02	0.0	3.039689e+02	9.949130e+01	0.0	3.032862e+02	7.943171e+01	0.0	2.987037e+02	6.191147e+01	0.0	2.939596e+02	4.787749e+01	0.0	2.856797e+02	3.331352e+01	0.0	2.859742e+02	2.812087e+01	0.0	2.838891e+02	2.184334e+01	0.0	2.837759e+02	1.884170e+01	0.0	2.840552e+02	1.570001e+01	0.0	2.833159e+02	1.256067e+01	0.0	2.851571e+02	1.188449e+01	0.0	2.859325e+02	1.058533e+01	0.0	2.874578e+02	9.970778e+00	0.0	2.884608e+02	8.975346e+00	0.0	2.889715e+02	7.861099e+00	0.0	2.902723e+02	7.441057e+00	0.0	2.910218e+02	6.578391e+00	0.0	2.921748e+02	6.146047e+00	0.0	2.933441e+02	5.373705e+00	0.0	2.940761e+02	4.504737e+00	0.0	2.951874e+02	3.759365e+00	0.0	2.949313e+02	2.108253e+00	0.0	2.958302e+02	1.336401e+00	0.0	2.948116e+02	-1.107568e+00	0.0	2.934483e+02	-3.811942e+00	0.0	2.936567e+02	-5.426414e+00	0.0	2.913721e+02	-8.771564e+00	0.0	2.913330e+02	-1.046010e+01	0.0	2.878426e+02	-1.435595e+01	0.0	2.844778e+02	-1.863076e+01	0.0	2.821508e+02	-2.102591e+01	0.0	2.776381e+02	-2.491275e+01	0.0	2.766936e+02	-2.758902e+01	0.0	2.697794e+02	-3.294470e+01	0.0	2.627499e+02	-3.596258e+01	0.0	2.640139e+02	-3.715096e+01	0.0	2.596643e+02	-4.189908e+01	0.0	2.573838e+02	-4.435105e+01	0.0	2.541836e+02	-4.327762e+01	0.0	2.489678e+02	-4.203789e+01	0.0	2.448657e+02	-3.868075e+01	0.0	2.424030e+02	-3.227876e+01	0.0	2.383369e+02	-2.863191e+01	0.0	2.362722e+02	-1.845360e+01	0.0	2.402124e+02	-7.993498e+00	0.0	2.436304e+02	-4.077134e+00	0.0	2.485334e+02	5.178793e+00	0.0	2.562146e+02	1.105706e+01	0.0	2.636295e+02	1.290252e+01	0.0	2.726066e+02	1.561640e+01	0.0	2.821115e+02	1.358470e+01	0.0	2.878009e+02	5.936844e+00	0.0	2.953000e+02	1.142885e+00	0.0	2.979178e+02	-1.419831e+01	0.0	2.947176e+02	-2.928175e+01	0.0	2.944350e+02	-3.788221e+01	0.0	2.873081e+02	-4.866200e+01	0.0	2.823700e+02	-5.321524e+01	0.0	2.756768e+02	-5.697349e+01	0.0	2.686435e+02	-5.781517e+01	0.0	2.639301e+02	-5.527766e+01	0.0	2.597613e+02	-5.333564e+01	0.0	2.566535e+02	-5.085755e+01	0.0	2.551040e+02	-4.822135e+01	0.0	2.532497e+02	-4.710140e+01	0.0	2.517474e+02	-4.559758e+01	0.0	2.506401e+02	-4.458367e+01	0.0	2.493034e+02	-4.432546e+01	0.0	2.478974e+02	-4.400888e+01	0.0	2.465105e+02	-4.394691e+01	0.0	2.447558e+02	-4.425903e+01	0.0	2.428098e+02	-4.431172e+01	0.0	2.407254e+02	-4.450136e+01	0.0	2.382773e+02	-4.464400e+01	0.0	2.359088e+02	-4.461242e+01	0.0	2.331383e+02	-4.459114e+01	0.0	2.301366e+02	-4.445153e+01	0.0	2.267707e+02	-4.435230e+01	0.0	2.224971e+02	-4.392729e+01	0.0	2.169505e+02	-4.329939e+01	0.0	2.042049e+02	-4.162323e+01	0.0	1.929780e+02	-1.145104e+01	0.0	2.510999e+02	-1.339852e+01	0.0	2.398569e+02	-7.365213e+00	0.0	2.374063e+02	-4.681635e+00	0.0	2.397439e+02	-3.722603e+00	0.0	2.386927e+02	-1.767928e+00	0.0	2.384455e+02	-2.142495e-01	0.0	2.381772e+02	1.419591e+00	0.0	2.379219e+02	2.809544e+00	0.0	2.375778e+02	4.659486e+00	0.0	2.373981e+02	6.195719e+00	0.0	2.371071e+02	7.831303e+00	0.0	2.370476e+02	9.793648e+00	0.0	2.370426e+02	1.088636e+01	0.0	2.367319e+02	1.302946e+01	0.0	2.367357e+02	1.435146e+01	0.0	2.364115e+02	1.641662e+01	0.0	2.365552e+02	1.881258e+01	0.0	2.367438e+02	2.028281e+01	0.0	2.366364e+02	2.317598e+01	0.0	2.371740e+02	2.489413e+01	0.0	2.371692e+02	2.807347e+01	0.0	2.385093e+02	3.123568e+01	0.0	2.400686e+02	3.349463e+01	0.0	2.417612e+02	3.637820e+01	0.0	2.441295e+02	3.826511e+01	0.0	2.462263e+02	4.045439e+01	0.0	2.489529e+02	4.196771e+01	0.0	2.512887e+02	4.336533e+01	0.0	2.538014e+02	4.457772e+01	0.0	2.564985e+02	4.526701e+01	0.0	2.588665e+02	4.598189e+01	0.0	2.611824e+02	4.638700e+01	0.0	2.635144e+02	4.656765e+01	0.0	2.655771e+02	4.677033e+01	0.0	2.677098e+02	4.660918e+01	0.0	2.698410e+02	4.623670e+01	0.0	2.715146e+02	4.624628e+01	0.0	2.734667e+02	4.565604e+01	0.0	2.748712e+02	4.515112e+01	0.0	2.761937e+02	4.503897e+01	0.0	2.776618e+02	4.467745e+01	0.0	2.786928e+02	4.464654e+01	0.0	2.797439e+02	4.456435e+01	0.0	2.808228e+02	4.452564e+01	0.0	2.819733e+02	4.475403e+01	0.0	2.829759e+02	4.499037e+01	0.0	2.841642e+02	4.522470e+01	0.0	2.849746e+02	4.557739e+01	0.0	2.859994e+02	4.592737e+01	0.0	2.870617e+02	4.621500e+01	0.0	2.877045e+02	4.654238e+01	0.0	2.886413e+02	4.675073e+01	0.0	2.904174e+02	4.697117e+01	0.0	2.913453e+02	4.704069e+01	0.0	2.931552e+02	4.477641e+01	0.0	2.914469e+02	4.441076e+01	0.0	2.914943e+02	4.189467e+01	0.0	2.899819e+02	3.324206e+01	0.0	2.959442e+02	2.601091e+01	0.0	3.008285e+02	1.774472e+01	0.0	3.119641e+02	3.081067e+00	0.0	3.129549e+02	-4.777736e+00	0.0	3.263233e+02	-2.876706e+01	0.0	3.326718e+02	-5.071893e+01	0.0	3.282562e+02	-5.565837e+01	0.0	3.279137e+02	-7.220526e+01	0.0	3.203339e+02	-7.826199e+01	0.0	3.141380e+02	-8.255776e+01	0.0	3.070782e+02	-8.771673e+01	0.0	2.991918e+02	-8.584702e+01	0.0	2.934049e+02	-8.216553e+01	0.0	2.887406e+02	-7.957179e+01	0.0	2.842162e+02	-7.565439e+01	0.0	2.816053e+02	-7.034456e+01	0.0	2.799215e+02	-6.823564e+01	0.0	2.777690e+02	-6.470540e+01	0.0	2.768052e+02	-6.140262e+01	0.0	2.759329e+02	-6.078098e+01	0.0	2.743389e+02	-5.905534e+01	0.0	2.732695e+02	-5.799357e+01	0.0	2.719124e+02	-5.794897e+01	0.0	2.701299e+02	-5.780093e+01	0.0	2.683240e+02	-5.772838e+01	0.0	2.662608e+02	-5.829434e+01	0.0	2.641022e+02	-5.847948e+01	0.0	2.617494e+02	-5.955763e+01	0.0	2.587200e+02	-6.078380e+01	0.0	2.555315e+02	-6.231142e+01	0.0	2.520233e+02	-6.485444e+01	0.0	2.474041e+02	-6.862176e+01	0.0	2.412391e+02	-7.328030e+01	0.0	2.314043e+02	-8.066289e+01	0.0	2.163978e+02	-8.670144e+01	0.0	1.941029e+02	-9.354375e+01	0.0	1.623173e+02	-9.452020e+01	0.0	1.224352e+02	-8.134943e+01	0.0	7.692477e+01	-5.737566e+01	0.0	-7.192149e+00	4.278136e+00	0.0	
SCALARS Energy double 1
LOOKUP_TABLE default
3.434436e+05	2.749721e+05	2.699913e+05	2.474917e+05	2.422966e+05	2.432642e+05	2.593757e+05	2.673731e+05	2.760514e+05	2.805441e+05	2.846382e+05	2.870495e+05	2.871271e+05	2.848827e+05	2.790824e+05	2.664158e+05	2.531131e+05	2.349063e+05	2.190285e+05	2.024255e+05	1.890195e+05	1.786308e+05	1.685802e+05	1.666860e+05	1.639460e+05	1.633932e+05	1.630435e+05	1.624460e+05	1.638722e+05	1.646934e+05	1.660705e+05	1.670061e+05	1.676923e+05	1.689321e+05	1.697671e+05	1.709520e+05	1.720248e+05	1.729196e+05	1.738945e+05	1.738586e+05	1.744757e+05	1.734130e+05	1.721381e+05	1.718290e+05	1.698521e+05	1.693502e+05	1.662653e+05	1.631734e+05	1.611484e+05	1.569683e+05	1.552603e+05	1.562130e+05	1.922403e+05	2.557933e+05	2.686623e+05	2.705270e+05	2.734280e+05	2.765052e+05	2.799280e+05	2.830425e+05	2.838651e+05	2.867429e+05	2.866006e+05	2.831396e+05	2.830986e+05	2.788766e+05	2.732694e+05	2.686752e+05	2.611130e+05	2.522984e+05	2.468475e+05	2.370349e+05	2.345075e+05	2.409150e+05	2.452991e+05	2.536957e+05	2.596633e+05	2.651639e+05	2.701870e+05	2.727082e+05	2.750094e+05	2.768054e+05	2.774869e+05	2.786812e+05	2.794590e+05	2.799912e+05	2.808037e+05	2.815666e+05	2.822886e+05	2.832730e+05	2.841950e+05	2.852024e+05	2.863638e+05	2.874559e+05	2.887246e+05	2.900736e+05	2.915981e+05	2.940866e+05	2.958563e+05	2.942707e+05	3.148338e+05	3.073730e+05	3.069278e+05	3.079196e+05	3.075739e+05	3.077825e+05	3.078069e+05	3.080808e+05	3.080889e+05	3.082113e+05	3.083416e+05	3.081262e+05	3.084964e+05	3.082136e+05	3.084080e+05	3.085195e+05	3.081323e+05	3.084226e+05	3.078018e+05	3.080783e+05	3.076277e+05	3.068381e+05	3.063697e+05	3.052405e+05	3.044757e+05	3.031907e+05	3.021708e+05	3.009562e+05	2.996025e+05	2.984580e+05	2.971752e+05	2.958493e+05	2.946743e+05	2.933434e+05	2.920911e+05	2.911454e+05	2.898048e+05	2.888727e+05	2.880170e+05	2.870301e+05	2.862967e+05	2.853772e+05	2.844805e+05	2.836248e+05	2.826931e+05	2.816304e+05	2.806012e+05	2.793008e+05	2.779308e+05	2.766913e+05	2.749916e+05	2.732859e+05	2.727437e+05	2.722002e+05	2.673247e+05	2.142723e+05	1.750911e+05	1.686581e+05	1.729450e+05	1.788772e+05	1.904527e+05	1.948639e+05	2.141517e+05	2.354009e+05	2.421608e+05	2.565540e+05	2.661821e+05	2.742006e+05	2.842232e+05	2.912233e+05	2.957293e+05	3.000825e+05	3.035734e+05	3.048827e+05	3.071233e+05	3.084717e+05	3.087322e+05	3.099735e+05	3.105405e+05	3.110306e+05	3.118037e+05	3.125723e+05	3.132309e+05	3.142711e+05	3.149068e+05	3.158730e+05	3.168888e+05	3.178576e+05	3.189188e+05	3.203760e+05	3.215793e+05	3.245122e+05	3.276841e+05	3.326072e+05	3.392925e+05	3.477500e+05	3.496624e+05	3.687388e+05	
SCALARS Pressure double 1
LOOKUP_TABLE default
1.328662e+05	1.003029e+05	9.486247e+04	8.289747e+04	7.964110e+04	8.073147e+04	8.808513e+04	9.260551e+04	9.704094e+04	9.956907e+04	1.016718e+05	1.028118e+05	1.027618e+05	1.012220e+05	9.743066e+04	9.047654e+04	8.304257e+04	7.382082e+04	6.580386e+04	5.805741e+04	5.218118e+04	4.764892e+04	4.377869e+04	4.273257e+04	4.163304e+04	4.137201e+04	4.115011e+04	4.097090e+04	4.146079e+04	4.180341e+04	4.232208e+04	4.268362e+04	4.299243e+04	4.346946e+04	4.381642e+04	4.428762e+04	4.469154e+04	4.507334e+04	4.543000e+04	4.545941e+04	4.564875e+04	4.522702e+04	4.474196e+04	4.452069e+04	4.378943e+04	4.349557e+04	4.232769e+04	4.111154e+04	4.033423e+04	3.867017e+04	3.778331e+04	3.957679e+04	5.996313e+04	8.982894e+04	9.594358e+04	9.693904e+04	9.851781e+04	1.003294e+05	1.022059e+05	1.038310e+05	1.045373e+05	1.060139e+05	1.056991e+05	1.039422e+05	1.035344e+05	1.010391e+05	9.791099e+04	9.502224e+04	9.067613e+04	8.604812e+04	8.266977e+04	7.764902e+04	7.668771e+04	7.967434e+04	8.238476e+04	8.675237e+04	9.010846e+04	9.327348e+04	9.601787e+04	9.755097e+04	9.888618e+04	9.985617e+04	1.003307e+05	1.010045e+05	1.014525e+05	1.017992e+05	1.022736e+05	1.027196e+05	1.031700e+05	1.037513e+05	1.043115e+05	1.049341e+05	1.056161e+05	1.062938e+05	1.070612e+05	1.078828e+05	1.088399e+05	1.102854e+05	1.118744e+05	1.121245e+05	1.170434e+05	1.146640e+05	1.146500e+05	1.149118e+05	1.148392e+05	1.149461e+05	1.149750e+05	1.151090e+05	1.151344e+05	1.151967e+05	1.152692e+05	1.151763e+05	1.153315e+05	1.152247e+05	1.153022e+05	1.153629e+05	1.151752e+05	1.152778e+05	1.150016e+05	1.150704e+05	1.148534e+05	1.143943e+05	1.140622e+05	1.134272e+05	1.129067e+05	1.121741e+05	1.115127e+05	1.107929e+05	1.099972e+05	1.092803e+05	1.085240e+05	1.077530e+05	1.070459e+05	1.062883e+05	1.055610e+05	1.049686e+05	1.042321e+05	1.036582e+05	1.031624e+05	1.026080e+05	1.021554e+05	1.016526e+05	1.011575e+05	1.006763e+05	1.001490e+05	9.957478e+04	9.899655e+04	9.832800e+04	9.760558e+04	9.693729e+04	9.609798e+04	9.522631e+04	9.479895e+04	9.445651e+04	9.207133e+04	6.694214e+04	4.624463e+04	4.302532e+04	4.453576e+04	4.715508e+04	5.178321e+04	5.404773e+04	6.207004e+04	7.177505e+04	7.568782e+04	8.242647e+04	8.782125e+04	9.219657e+04	9.746392e+04	1.015097e+05	1.041961e+05	1.066410e+05	1.086886e+05	1.096109e+05	1.107880e+05	1.116316e+05	1.118875e+05	1.125156e+05	1.129242e+05	1.132434e+05	1.136910e+05	1.141707e+05	1.146009e+05	1.152046e+05	1.156435e+05	1.162229e+05	1.168680e+05	1.174942e+05	1.181593e+05	1.190415e+05	1.198886e+05	1.216314e+05	1.237641e+05	1.269080e+05	1.311633e+05	1.363899e+05	1.387200e+05	1.474873e+05	
SCALARS Temperature double 1
LOOKUP_TABLE default
2.950289e+02	2.826853e+02	2.749889e+02	2.653719e+02	2.616405e+02	2.635379e+02	2.681243e+02	2.720819e+02	2.750922e+02	2.770454e+02	2.783582e+02	2.789153e+02	2.787600e+02	2.772741e+02	2.736876e+02	2.681256e+02	2.612762e+02	2.528970e+02	2.443439e+02	2.357317e+02	2.288100e+02	2.227137e+02	2.180378e+02	2.158159e+02	2.141898e+02	2.136929e+02	2.131417e+02	2.130238e+02	2.135592e+02	2.141104e+02	2.147950e+02	2.152899e+02	2.158234e+02	2.164542e+02	2.169745e+02	2.176204e+02	2.181088e+02	2.186839e+02	2.190761e+02	2.192245e+02	2.193311e+02	2.187801e+02	2.181900e+02	2.176432e+02	2.167819e+02	2.161322e+02	2.146171e+02	2.128466e+02	2.117268e+02	2.090554e+02	2.070065e+02	2.137913e+02	2.514623e+02	2.748869e+02	2.783119e+02	2.790108e+02	2.801397e+02	2.815899e+02	2.828786e+02	2.838557e+02	2.846616e+02	2.854819e+02	2.849659e+02	2.840067e+02	2.832208e+02	2.812818e+02	2.789883e+02	2.763277e+02	2.726152e+02	2.689795e+02	2.653433e+02	2.609762e+02	2.606348e+02	2.628506e+02	2.659080e+02	2.695069e+02	2.724710e+02	2.752228e+02	2.773112e+02	2.786540e+02	2.797208e+02	2.803904e+02	2.808608e+02	2.813558e+02	2.816945e+02	2.820062e+02	2.823688e+02	2.827080e+02	2.830839e+02	2.835273e+02	2.839706e+02	2.844720e+02	2.849744e+02	2.855138e+02	2.860957e+02	2.867188e+02	2.874698e+02	2.884539e+02	2.901996e+02	2.918040e+02	2.866330e+02	2.873532e+02	2.876311e+02	2.874332e+02	2.875360e+02	2.875889e+02	2.876249e+02	2.876826e+02	2.877233e+02	2.877534e+02	2.877967e+02	2.877741e+02	2.878046e+02	2.878027e+02	2.878115e+02	2.878461e+02	2.877681e+02	2.877573e+02	2.876768e+02	2.876141e+02	2.875253e+02	2.872250e+02	2.869363e+02	2.865414e+02	2.861048e+02	2.856290e+02	2.850989e+02	2.845895e+02	2.840282e+02	2.834652e+02	2.829183e+02	2.823679e+02	2.818292e+02	2.812970e+02	2.807629e+02	2.802714e+02	2.797719e+02	2.792990e+02	2.789234e+02	2.785219e+02	2.781399e+02	2.777880e+02	2.774328e+02	2.770735e+02	2.766727e+02	2.762677e+02	2.758264e+02	2.753922e+02	2.748921e+02	2.744039e+02	2.738893e+02	2.733031e+02	2.727943e+02	2.724657e+02	2.709509e+02	2.517686e+02	2.209782e+02	2.149695e+02	2.165846e+02	2.206468e+02	2.260945e+02	2.296528e+02	2.376642e+02	2.471302e+02	2.518518e+02	2.571767e+02	2.623806e+02	2.661351e+02	2.700697e+02	2.733693e+02	2.755573e+02	2.773093e+02	2.788369e+02	2.796891e+02	2.803806e+02	2.810415e+02	2.813400e+02	2.816675e+02	2.820392e+02	2.822969e+02	2.825996e+02	2.829617e+02	2.833052e+02	2.837074e+02	2.840775e+02	2.844795e+02	2.849633e+02	2.854406e+02	2.859225e+02	2.865238e+02	2.872223e+02	2.883437e+02	2.899520e+02	2.920981e+02	2.948717e+02	2.979551e+02	3.004128e+02	3.021719e+02	
SCALARS Mach double 1
LOOKUP_TABLE default
3.482260e-01	5.872677e-01	7.031903e-01	8.328228e-01	8.802242e-01	8.562804e-01	7.969609e-01	7.437612e-01	7.017221e-01	6.735653e-01	6.541948e-01	6.458542e-01	6.481874e-01	6.702191e-01	7.215271e-01	7.969443e-01	8.847859e-01	9.871419e-01	1.087924e+00	1.187220e+00	1.266248e+00	1.335716e+00	1.389109e+00	1.414555e+00	1.433219e+00	1.438931e+00	1.445270e+00	1.446627e+00	1.440468e+00	1.434132e+00	1.426268e+00	1.420589e+00	1.414470e+00	1.407239e+00	1.401279e+00	1.393885e+00	1.388297e+00	1.381720e+00	1.377237e+00	1.375541e+00	1.374323e+00	1.380621e+00	1.387368e+00	1.393624e+00	1.403485e+00	1.410929e+00	1.428311e+00	1.448666e+00	1.461567e+00	1.492436e+00	1.516213e+00	1.437799e+00	1.004259e+00	7.046382e-01	6.548841e-01	6.444179e-01	6.272580e-01	6.047117e-01	5.841505e-01	5.681947e-01	5.547747e-01	5.408547e-01	5.496441e-01	5.656993e-01	5.785992e-01	6.095513e-01	6.447567e-01	6.839992e-01	7.364218e-01	7.856400e-01	8.331915e-01	8.885347e-01	8.927921e-01	8.649906e-01	8.259032e-01	7.786129e-01	7.384103e-01	6.998622e-01	6.696743e-01	6.497753e-01	6.336627e-01	6.234020e-01	6.161212e-01	6.083904e-01	6.030619e-01	5.981255e-01	5.923459e-01	5.869026e-01	5.808244e-01	5.735947e-01	5.662969e-01	5.579544e-01	5.495002e-01	5.403087e-01	5.302541e-01	5.193202e-01	5.058905e-01	4.878468e-01	4.544059e-01	4.217326e-01	5.208358e-01	5.079940e-01	5.029691e-01	5.065526e-01	5.046937e-01	5.037347e-01	5.030817e-01	5.020340e-01	5.012942e-01	5.007445e-01	4.999558e-01	5.003681e-01	4.998110e-01	4.998463e-01	4.996865e-01	4.990546e-01	5.004776e-01	5.006739e-01	5.021390e-01	5.032785e-01	5.048876e-01	5.102997e-01	5.154585e-01	5.224510e-01	5.300956e-01	5.383290e-01	5.473895e-01	5.559856e-01	5.653424e-01	5.746107e-01	5.835083e-01	5.923613e-01	6.009323e-01	6.093135e-01	6.176404e-01	6.252336e-01	6.328848e-01	6.400680e-01	6.457324e-01	6.517515e-01	6.574427e-01	6.626551e-01	6.678888e-01	6.731549e-01	6.789972e-01	6.848678e-01	6.912253e-01	6.974453e-01	7.045651e-01	7.114704e-01	7.187045e-01	7.268885e-01	7.339471e-01	7.384843e-01	7.591839e-01	1.000612e+00	1.355514e+00	1.424266e+00	1.405745e+00	1.359297e+00	1.297187e+00	1.256642e+00	1.165064e+00	1.055397e+00	9.996208e-01	9.354289e-01	8.709218e-01	8.229627e-01	7.710745e-01	7.259678e-01	6.950841e-01	6.697026e-01	6.470323e-01	6.341462e-01	6.235525e-01	6.133063e-01	6.086389e-01	6.034879e-01	5.976018e-01	5.934964e-01	5.886463e-01	5.828058e-01	5.772246e-01	5.706377e-01	5.645261e-01	5.578293e-01	5.496880e-01	5.415636e-01	5.332630e-01	5.227616e-01	5.103471e-01	4.898951e-01	4.592718e-01	4.155070e-01	3.521237e-01	2.663927e-01	1.716945e-01	1.412322e-02	
SCALARS Pressure_Coefficient double 1
LOOKUP_TABLE default