# vtk DataFile Version 3.0
vtk output
ASCII
DATASET UNSTRUCTURED_GRID
POINTS 3500 double
1.868554e-04	9.823874e-04	0.0	4.068719e-04	2.139119e-03	0.0	7.723020e-04	3.461190e-03	0.0	1.585088e-03	4.874790e-03	0.0	2.593217e-03	6.497752e-03	0.0	4.158881e-03	8.118663e-03	0.0	6.092756e-03	9.913220e-03	0.0	8.600889e-03	1.174514e-02	0.0	1.169734e-02	1.364977e-02	0.0	1.543788e-02	1.569368e-02	0.0	1.998409e-02	1.774385e-02	0.0	2.539164e-02	1.989927e-02	0.0	3.178394e-02	2.217885e-02	0.0	3.930716e-02	2.457553e-02	0.0	4.811827e-02	2.709087e-02	0.0	5.839308e-02	2.970939e-02	0.0	7.031046e-02	3.245497e-02	0.0	8.406825e-02	3.531930e-02	0.0	9.987484e-02	3.826310e-02	0.0	1.179311e-01	4.127301e-02	0.0	1.384292e-01	4.432656e-02	0.0	1.615422e-01	4.738658e-02	0.0	1.874148e-01	5.035337e-02	0.0	2.161332e-01	5.318680e-02	0.0	2.477205e-01	5.581770e-02	0.0	2.821206e-01	5.815430e-02	0.0	3.191821e-01	6.010288e-02	0.0	3.586508e-01	6.159899e-02	0.0	4.001711e-01	6.252108e-02	0.0	4.432887e-01	6.277558e-02	0.0	4.874672e-01	6.228493e-02	0.0	5.321105e-01	6.092586e-02	0.0	5.765925e-01	5.862783e-02	0.0	6.202957e-01	5.543747e-02	0.0	6.626546e-01	5.155581e-02	0.0	7.031825e-01	4.723135e-02	0.0	7.414788e-01	4.263629e-02	0.0	7.772432e-01	3.792001e-02	0.0	8.102752e-01	3.319244e-02	0.0	8.404820e-01	2.860797e-02	0.0	8.678504e-01	2.424165e-02	0.0	8.924385e-01	2.014189e-02	0.0	9.143638e-01	1.635238e-02	0.0	9.337803e-01	1.287205e-02	0.0	9.508741e-01	9.716652e-03	0.0	9.658416e-01	6.867914e-03	0.0	9.788873e-01	4.317554e-03	0.0	9.902099e-01	2.038145e-03	0.0	0.000000e+00	0.000000e+00	0.0	1.000000e+00	0.000000e+00	0.0	9.900132e-01	5.126793e-04	0.0	9.784720e-01	9.349347e-04	0.0	9.651834e-01	1.175276e-03	0.0	9.499506e-01	1.166614e-03	0.0	9.325769e-01	7.980478e-04	0.0	9.128739e-01	3.732606e-06	0.0	8.906721e-01	-1.318222e-03	0.0	8.658308e-01	-3.236622e-03	0.0	8.382510e-01	-5.806833e-03	0.0	8.078945e-01	-9.092988e-03	0.0	7.747874e-01	-1.307558e-02	0.0	7.390487e-01	-1.778085e-02	0.0	7.008819e-01	-2.313179e-02	0.0	6.605779e-01	-2.895947e-02	0.0	6.185196e-01	-3.505426e-02	0.0	5.751681e-01	-4.114689e-02	0.0	5.310447e-01	-4.690047e-02	0.0	4.867125e-01	-5.193648e-02	0.0	4.427533e-01	-5.583942e-02	0.0	3.997552e-01	-5.830856e-02	0.0	3.582817e-01	-5.919807e-02	0.0	3.188331e-01	-5.871985e-02	0.0	2.817889e-01	-5.731018e-02	0.0	2.474071e-01	-5.528254e-02	0.0	2.158361e-01	-5.287606e-02	0.0	1.871305e-01	-5.022753e-02	0.0	1.612676e-01	-4.741359e-02	0.0	1.381600e-01	-4.449155e-02	0.0	1.176650e-01	-4.155259e-02	0.0	9.961099e-02	-3.863201e-02	0.0	8.380728e-02	-3.574981e-02	0.0	7.005351e-02	-3.292356e-02	0.0	5.814407e-02	-3.018647e-02	0.0	4.788189e-02	-2.755009e-02	0.0	3.909135e-02	-2.498585e-02	0.0	3.159690e-02	-2.251673e-02	0.0	2.523741e-02	-2.015905e-02	0.0	1.986393e-02	-1.792869e-02	0.0	1.534775e-02	-1.581893e-02	0.0	1.163654e-02	-1.372532e-02	0.0	8.564138e-03	-1.178437e-02	0.0	6.071653e-03	-9.932983e-03	0.0	4.149887e-03	-8.125849e-03	0.0	2.591097e-03	-6.499081e-03	0.0	1.585676e-03	-4.874625e-03	0.0	7.743669e-04	-3.460449e-03	0.0	4.074825e-04	-2.138945e-03	0.0	1.871407e-04	-9.823331e-04	0.0	1.010000e+00	0.000000e+00	0.0	1.020376e+00	0.000000e+00	0.0	1.031520e+00	0.000000e+00	0.0	1.043850e+00	0.000000e+00	0.0	1.057831e+00	0.000000e+00	0.0	1.073989e+00	0.000000e+00	0.0	1.092932e+00	0.000000e+00	0.0	1.115373e+00	0.000000e+00	0.0	1.142158e+00	0.000000e+00	0.0	1.174294e+00	0.000000e+00	0.0	1.212991e+00	0.000000e+00	0.0	1.259706e+00	0.000000e+00	0.0	1.316198e+00	0.000000e+00	0.0	1.384593e+00	0.000000e+00	0.0	1.467465e+00	0.000000e+00	0.0	1.567935e+00	0.000000e+00	0.0	1.689785e+00	0.000000e+00	0.0	1.837601e+00	0.000000e+00	0.0	2.016949e+00	0.000000e+00	0.0	2.234579e+00	0.000000e+00	0.0	2.498684e+00	0.000000e+00	0.0	2.819206e+00	0.000000e+00	0.0	3.208212e+00	0.000000e+00	0.0	3.680345e+00	0.000000e+00	0.0	4.253377e+00	0.000000e+00	0.0	4.948882e+00	0.000000e+00	0.0	5.793041e+00	0.000000e+00	0.0	6.817631e+00	0.000000e+00	0.0	8.061223e+00	0.000000e+00	0.0	9.570631e+00	0.000000e+00	0.0	1.140268e+01	0.000000e+00	0.0	1.362633e+01	0.000000e+00	0.0	1.632529e+01	0.000000e+00	0.0	1.960116e+01	0.000000e+00	0.0	2.357727e+01	0.000000e+00	0.0	2.840329e+01	0.000000e+00	0.0	3.426089e+01	0.000000e+00	0.0	4.137058e+01	0.000000e+00	0.0	5.000000e+01	0.000000e+00	0.0	5.000000e+01	1.000000e-03	0.0	5.000000e+01	2.346199e-03	0.0	5.000000e+01	4.504648e-03	0.0	5.000000e+01	8.222602e-03	0.0	5.000000e+01	1.478721e-02	0.0	5.000000e+01	2.647113e-02	0.0	5.000000e+01	4.731932e-02	0.0	5.000000e+01	8.454940e-02	0.0	5.000000e+01	1.510504e-01	0.0	5.000000e+01	2.698448e-01	0.0	5.000000e+01	4.820591e-01	0.0	5.000000e+01	8.611618e-01	0.0	5.000000e+01	1.538397e+00	0.0	5.000000e+01	2.748224e+00	0.0	5.000000e+01	4.909483e+00	0.0	5.000000e+01	8.770399e+00	0.0	5.000000e+01	1.566762e+01	0.0	5.000000e+01	2.798894e+01	0.0	5.000000e+01	5.000000e+01	0.0	5.000000e+01	-1.000000e-03	0.0	5.000000e+01	-2.346199e-03	0.0	5.000000e+01	-4.504648e-03	0.0	5.000000e+01	-8.222602e-03	0.0	5.000000e+01	-1.478721e-02	0.0	5.000000e+01	-2.647113e-02	0.0	5.000000e+01	-4.731932e-02	0.0	5.000000e+01	-8.454940e-02	0.0	5.000000e+01	-1.510504e-01	0.0	5.000000e+01	-2.698448e-01	0.0	5.000000e+01	-4.820591e-01	0.0	5.000000e+01	-8.611618e-01	0.0	5.000000e+01	-1.538397e+00	0.0	5.000000e+01	-2.748224e+00	0.0	5.000000e+01	-4.909483e+00	0.0	5.000000e+01	-8.770399e+00	0.0	5.000000e+01	-1.566762e+01	0.0	5.000000e+01	-2.798894e+01	0.0	5.000000e+01	-5.000000e+01	0.0	1.000000e+00	1.000000e-03	0.0	1.000000e+00	2.346199e-03	0.0	1.000000e+00	4.504648e-03	0.0	1.000000e+00	8.222602e-03	0.0	1.000000e+00	1.478721e-02	0.0	1.000000e+00	2.647113e-02	0.0	1.000000e+00	4.731932e-02	0.0	1.000000e+00	8.454940e-02	0.0	1.000000e+00	1.510504e-01	0.0	1.000000e+00	2.698448e-01	0.0	1.000000e+00	4.820591e-01	0.0	1.000000e+00	8.611618e-01	0.0	1.000000e+00	1.538397e+00	0.0	1.000000e+00	2.748224e+00	0.0	1.000000e+00	4.909483e+00	0.0	1.000000e+00	8.770399e+00	0.0	1.000000e+00	1.566762e+01	0.0	1.000000e+00	2.798894e+01	0.0	1.000000e+00	5.000000e+01	0.0	1.000000e+00	-1.000000e-03	0.0	1.000000e+00	-2.346199e-03	0.0	1.000000e+00	-4.504648e-03	0.0	1.000000e+00	-8.222602e-03	0.0	1.000000e+00	-1.478721e-02	0.0	1.000000e+00	-2.647113e-02	0.0	1.000000e+00	-4.731932e-02	0.0	1.000000e+00	-8.454940e-02	0.0	1.000000e+00	-1.510504e-01	0.0	1.000000e+00	-2.698448e-01	0.0	1.000000e+00	-4.820591e-01	0.0	1.000000e+00	-8.611618e-01	0.0	1.000000e+00	-1.538397e+00	0.0	1.000000e+00	-2.748224e+00	0.0	1.000000e+00	-4.909483e+00	0.0	1.000000e+00	-8.770399e+00	0.0	1.000000e+00	-1.566762e+01	0.0	1.000000e+00	-2.798894e+01	0.0	1.000000e+00	-5.000000e+01	0.0	1.010000e+00	5.000000e+01	0.0	1.020376e+00	5.000000e+01	0.0	1.031520e+00	5.000000e+01	0.0	1.043850e+00	5.000000e+01	0.0	1.057831e+00	5.000000e+01	0.0	1.073989e+00	5.000000e+01	0.0	1.092932e+00	5.000000e+01	0.0	1.115373e+00	5.000000e+01	0.0	1.142158e+00	5.000000e+01	0.0	1.174294e+00	5.000000e+01	0.0	1.212991e+00	5.000000e+01	0.0	1.259706e+00	5.000000e+01	0.0	1.316198e+00	5.000000e+01	0.0	1.384593e+00	5.000000e+01	0.0	1.467465e+00	5.000000e+01	0.0	1.567935e+00	5.000000e+01	0.0	1.689785e+00	5.000000e+01	0.0	1.837601e+00	5.000000e+01	0.0	2.016949e+00	5.000000e+01	0.0	2.234579e+00	5.000000e+01	0.0	2.498684e+00	5.000000e+01	0.0	2.819206e+00	5.000000e+01	0.0	3.208212e+00	5.000000e+01	0.0	3.680345e+00	5.000000e+01	0.0	4.253377e+00	5.000000e+01	0.0	4.948882e+00	5.000000e+01	0.0	5.793041e+00	5.000000e+01	0.0	6.817631e+00	5.000000e+01	0.0	8.061223e+00	5.000000e+01	0.0	9.570631e+00	5.000000e+01	0.0	1.140268e+01	5.000000e+01	0.0	1.362633e+01	5.000000e+01	0.0	1.632529e+01	5.000000e+01	0.0	1.960116e+01	5.000000e+01	0.0	2.357727e+01	5.000000e+01	0.0	2.840329e+01	5.000000e+01	0.0	3.426089e+01	5.000000e+01	0.0	4.137058e+01	5.000000e+01	0.0	1.010000e+00	-5.000000e+01	0.0	1.020376e+00	-5.000000e+01	0.0	1.031520e+00	-5.000000e+01	0.0	1.043850e+00	-5.000000e+01	0.0	1.057831e+00	-5.000000e+01	0.0	1.073989e+00	-5.000000e+01	0.0	1.092932e+00	-5.000000e+01	0.0	1.115373e+00	-5.000000e+01	0.0	1.142158e+00	-5.000000e+01	0.0	1.174294e+00	-5.000000e+01	0.0	1.212991e+00	-5.000000e+01	0.0	1.259706e+00	-5.000000e+01	0.0	1.316198e+00	-5.000000e+01	0.0	1.384593e+00	-5.000000e+01	0.0	1.467465e+00	-5.000000e+01	0.0	1.567935e+00	-5.000000e+01	0.0	1.689785e+00	-5.000000e+01	0.0	1.837601e+00	-5.000000e+01	0.0	2.016949e+00	-5.000000e+01	0.0	2.234579e+00	-5.000000e+01	0.0	2.498684e+00	-5.000000e+01	0.0	2.819206e+00	-5.000000e+01	0.0	3.208212e+00	-5.000000e+01	0.0	3.680345e+00	-5.000000e+01	0.0	4.253377e+00	-5.000000e+01	0.0	4.948882e+00	-5.000000e+01	0.0	5.793041e+00	-5.000000e+01	0.0	6.817631e+00	-5.000000e+01	0.0	8.061223e+00	-5.000000e+01	0.0	9.570631e+00	-5.000000e+01	0.0	1.140268e+01	-5.000000e+01	0.0	1.362633e+01	-5.000000e+01	0.0	1.632529e+01	-5.000000e+01	0.0	1.960116e+01	-5.000000e+01	0.0	2.357727e+01	-5.000000e+01	0.0	2.840329e+01	-5.000000e+01	0.0	3.426089e+01	-5.000000e+01	0.0	4.137058e+01	-5.000000e+01	0.0	9.900000e-01	5.000000e+01	0.0	9.782470e-01	5.000000e+01	0.0	9.644339e-01	4.999999e+01	0.0	9.482003e-01	4.999997e+01	0.0	9.291225e-01	4.999995e+01	0.0	9.067032e-01	4.999991e+01	0.0	8.803583e-01	4.999986e+01	0.0	8.494021e-01	4.999977e+01	0.0	8.130298e-01	4.999965e+01	0.0	7.702971e-01	4.999947e+01	0.0	7.200962e-01	4.999922e+01	0.0	6.611282e-01	4.999885e+01	0.0	5.918707e-01	4.999833e+01	0.0	5.105401e-01	4.999760e+01	0.0	4.150483e-01	4.999658e+01	0.0	3.029525e-01	4.999514e+01	0.0	1.713973e-01	4.999313e+01	0.0	1.704879e-02	4.999034e+01	0.0	-1.639811e-01	4.998645e+01	0.0	-3.762199e-01	4.998106e+01	0.0	-6.249298e-01	4.997359e+01	0.0	-9.162140e-01	4.996327e+01	0.0	-1.257132e+00	4.994903e+01	0.0	-1.655823e+00	4.992942e+01	0.0	-2.121635e+00	4.990246e+01	0.0	-2.665249e+00	4.986548e+01	0.0	-3.298796e+00	4.981486e+01	0.0	-4.035948e+00	4.974575e+01	0.0	-4.891965e+00	4.965163e+01	0.0	-5.883661e+00	4.952389e+01	0.0	-7.029259e+00	4.935110e+01	0.0	-8.348068e+00	4.911836e+01	0.0	-9.859923e+00	4.880637e+01	0.0	-1.158428e+01	4.839045e+01	0.0	-1.353887e+01	4.783954e+01	0.0	-1.573784e+01	4.711523e+01	0.0	-1.818921e+01	4.617114e+0
[...]
POINT_DATA 3500

SCALARS Density double 1
LOOKUP_TABLE default
1.438048e+00	1.420802e+00	1.293568e+00	1.212418e+00	1.137685e+00	1.062117e+00	1.018927e+00	9.652162e-01	9.390892e-01	9.076357e-01	8.821712e-01	8.790668e-01	8.792118e-01	8.784898e-01	8.773079e-01	8.779630e-01	8.801296e-01	8.805937e-01	8.804037e-01	8.809114e-01	8.810946e-01	8.791089e-01	8.759702e-01	8.728662e-01	8.688202e-01	8.637185e-01	8.583475e-01	8.525376e-01	8.459076e-01	8.364734e-01	8.187410e-01	7.989823e-01	8.027944e-01	9.506245e-01	1.147049e+00	1.188908e+00	1.179998e+00	1.183631e+00	1.203571e+00	1.223981e+00	1.239984e+00	1.255316e+00	1.271082e+00	1.286771e+00	1.303288e+00	1.321071e+00	1.344325e+00	1.357388e+00	1.507545e+00	1.331052e+00	1.426109e+00	1.425017e+00	1.426543e+00	1.425563e+00	1.424460e+00	1.421188e+00	1.416289e+00	1.409919e+00	1.401757e+00	1.392191e+00	1.380957e+00	1.366957e+00	1.350447e+00	1.331441e+00	1.309724e+00	1.285101e+00	1.257383e+00	1.228698e+00	1.205021e+00	1.194355e+00	1.199583e+00	1.214597e+00	1.232867e+00	1.251065e+00	1.267575e+00	1.282943e+00	1.298554e+00	1.314300e+00	1.329612e+00	1.345225e+00	1.361922e+00	1.379585e+00	1.397187e+00	1.416286e+00	1.437946e+00	1.461436e+00	1.485865e+00	1.507919e+00	1.535909e+00	1.565570e+00	1.590142e+00	1.620605e+00	1.640714e+00	1.657370e+00	1.658738e+00	1.646149e+00	1.607403e+00	1.578152e+00	1.337919e+00	1.338044e+00	1.339571e+00	1.338737e+00	1.337091e+00	1.335081e+00	1.332579e+00	1.329599e+00	1.326220e+00	1.322524e+00	1.318602e+00	1.314554e+00	1.310469e+00	1.306422e+00	1.302466e+00	1.298651e+00	1.295079e+00	1.291980e+00	1.289713e+00	1.288635e+00	1.288840e+00	1.289969e+00	1.291345e+00	1.292360e+00	1.292802e+00	1.292827e+00	1.292694e+00	1.292559e+00	1.292463e+00	1.292393e+00	1.292339e+00	1.292298e+00	1.292272e+00	1.292255e+00	1.292246e+00	1.292232e+00	1.292223e+00	1.292164e+00	1.292102e+00	1.292103e+00	1.292102e+00	1.292095e+00	1.292084e+00	1.292076e+00	1.292088e+00	1.292135e+00	1.292202e+00	1.292228e+00	1.292114e+00	1.291812e+00	1.291455e+00	1.291323e+00	1.291591e+00	1.292054e+00	1.292346e+00	1.292249e+00	1.292169e+00	1.291639e+00	1.292100e+00	1.292099e+00	1.292099e+00	1.292099e+00	1.292100e+00	1.292100e+00	1.292100e+00	1.292101e+00	1.292102e+00	1.292103e+00	1.292106e+00	1.292109e+00	1.292120e+00	1.292128e+00	1.292171e+00	1.292199e+00	1.292324e+00	1.292432e+00	1.292957e+00	1.389538e+00	1.382203e+00	1.393705e+00	1.378522e+00	1.370320e+00	1.354992e+00	1.339787e+00	1.321068e+00	1.302957e+00	1.282068e+00	1.258910e+00	1.248027e+00	1.254035e+00	1.266762e+00	1.277419e+00	1.284071e+00	1.287794e+00	1.289670e+00	1.290402e+00	1.393947e+00	1.396657e+00	1.414407e+00	1.404121e+00	1.401354e+00	1.395357e+00	1.388699e+00	1.379210e+00	1.366458e+00	1.350094e+00	1.334958e+00	1.323887e+00	1.315637e+00	1.308686e+00	1.302973e+00	1.298817e+00	1.296109e+00	1.294581e+00	1.293849e+00	1.290400e+00	1.290399e+00	1.290398e+00	1.290396e+00	1.290394e+00	1.290392e+00	1.290390e+00	1.290388e+00	1.290385e+00	1.290382e+00	1.290378e+00	1.290374e+00	1.290369e+00	1.290364e+00	1.290357e+00	1.290350e+00	1.290342e+00	1.290332e+00	1.290321e+00	1.290309e+00	1.290295e+00	1.290280e+00	1.290264e+00	1.290247e+00	1.290229e+00	1.290212e+00	1.290198e+00	1.290188e+00	1.290185e+00	1.290193e+00	1.290216e+00	1.290259e+00	1.290329e+00	1.290425e+00	1.290569e+00	1.290733e+00	1.291005e+00	1.291241e+00	1.293850e+00	1.293851e+00	1.293852e+00	1.293853e+00	1.293854e+00	1.293856e+00	1.293857e+00	1.293859e+00	1.293862e+00	1.293864e+00	1.293867e+00	1.293871e+00	1.293875e+00	1.293879e+00	1.293885e+00	1.293891e+00	1.293899e+00	1.293907e+00	1.293917e+00	1.293928e+00	1.293942e+00	1.293957e+00	1.293973e+00	1.293992e+00	1.294012e+00	1.294033e+00	1.294054e+00	1.294073e+00	1.294088e+00	1.294096e+00	1.294091e+00	1.294070e+00	1.294025e+00	1.293954e+00	1.293841e+00	1.293704e+00	1.293480e+00	1.293276e+00	1.290403e+00	1.290405e+00	1.290407e+00	1.290408e+00	1.290411e+00	1.290413e+00	1.290416e+00	1.290419e+00	1.290422e+00	1.290426e+00	1.290430e+00	1.290435e+00	1.290440e+00	1.290445e+00	1.290452e+00	1.290459e+00	1.290466e+00	1.290475e+00	1.290484e+00	1.290495e+00	1.290506e+00	1.290519e+00	1.290536e+00	1.290555e+00	1.290578e+00	1.290605e+00	1.290636e+00	1.290673e+00	1.290716e+00	1.290767e+00	1.290827e+00	1.290896e+00	1.290977e+00	1.291069e+00	1.291173e+00	1.291286e+00	1.291407e+00	1.291531e+00	1.291654e+00	1.291772e+00	1.291879e+00	1.291973e+00	1.292052e+00	1.292116e+00	1.292167e+00	1.292207e+00	1.292237e+00	1.292262e+00	1.292284e+00	1.292306e+00	1.292330e+00	1.292359e+00	1.292396e+00	1.292442e+00	1.292497e+00	1.292564e+00	1.292641e+00	1.292727e+00	1.292820e+00	1.292917e+00	1.293013e+00	1.293107e+00	1.293196e+00	1.293278e+00	1.293352e+00	1.293417e+00	1.293475e+00	1.293525e+00	1.293568e+00	1.293605e+00	1.293637e+00	1.293665e+00	1.293688e+00	1.293709e+00	1.293727e+00	1.293742e+00	1.293755e+00	1.293767e+00	1.293777e+00	1.293786e+00	1.293794e+00	1.293802e+00	1.293808e+00	1.293813e+00	1.293818e+00	1.293822e+00	1.293826e+00	1.293830e+00	1.293833e+00	1.293835e+00	1.293838e+00	1.293840e+00	1.293842e+00	1.293844e+00	1.293845e+00	1.293846e+00	1.293847e+00	1.368883e+00	1.370017e+00	1.367919e+00	1.360182e+00	1.355761e+00	1.346028e+00	1.333963e+00	1.317049e+00	1.300028e+00	1.279737e+00	1.257128e+00	1.246998e+00	1.253610e+00	1.266631e+00	1.277390e+00	1.284067e+00	1.287793e+00	1.289670e+00	1.346346e+00	1.345823e+00	1.343756e+00	1.342470e+00	1.341163e+00	1.335273e+00	1.326237e+00	1.311745e+00	1.296357e+00	1.276942e+00	1.255031e+00	1.245796e+00	1.253125e+00	1.266485e+00	1.277358e+00	1.284063e+00	1.287793e+00	1.289669e+00	1.321740e+00	1.322026e+00	1.322564e+00	1.323335e+00	1.323453e+00	1.320869e+00	1.315754e+00	1.304679e+00	1.291673e+00	1.273541e+00	1.252538e+00	1.244377e+00	1.252563e+00	1.266321e+00	1.277323e+00	1.284058e+00	1.287793e+00	1.289669e+00	1.304176e+00	1.305037e+00	1.306210e+00	1.307205e+00	1.308011e+00	1.307158e+00	1.304500e+00	1.296336e+00	1.285971e+00	1.269450e+00	1.249575e+00	1.242702e+00	1.251911e+00	1.266134e+00	1.277283e+00	1.284053e+00	1.287793e+00	1.289669e+00	1.287704e+00	1.288636e+00	1.289810e+00	1.290918e+00	1.292187e+00	1.292393e+00	1.291690e+00	1.286393e+00	1.279040e+00	1.264515e+00	1.246051e+00	1.240733e+00	1.251161e+00	1.265926e+00	1.277239e+00	1.284046e+00	1.287792e+00	1.289668e+00	1.271994e+00	1.272925e+00	1.274118e+00	1.275403e+00	1.276980e+00	1.277842e+00	1.278378e+00	1.275321e+00	1.270913e+00	1.258610e+00	1.241848e+00	1.238412e+00	1.250297e+00	1.265695e+00	1.277192e+00	1.284040e+00	1.287792e+00	1.289668e+00	1.256172e+00	1.257093e+00	1.258300e+00	1.259718e+00	1.261466e+00	1.262811e+00	1.264215e+00	1.263047e+00	1.261527e+00	1.251601e+00	1.236845e+00	1.235682e+00	1.249294e+00	1.265434e+00	1.277141e+00	1.284033e+00	1.287791e+00	1.289668e+00	1.240774e+00	1.241671e+00	1.242895e+00	1.244432e+00	1.246306e+00	1.248022e+00	1.249901e+00	1.250166e+00	1.251210e+00	1.243547e+00	1.231019e+00	1.232557e+00	1.248162e+00	1.265135e+00	1.277082e+00	1.284026e+00	1.287791e+00	1.289667e+00	1.224675e+00	1.225497e+00	1.226717e+00	1.228320e+00	1.230256e+00	1.232225e+00	1.234440e+00	1.236226e+00	1.239809e+00	1.234248e+00	1.224215e+00	1.229055e+00	1.246966e+00	1.264824e+00	1.277013e+00	1.284016e+00	1.287790e+00	1.289667e+00	1.204236e+00	1.205076e+00	1.206422e+00	1.208236e+00	1.210499e+00	1.213056e+00	1.216217e+00	1.220339e+00	1.226548e+00	1.222806e+00	1.215694e+00	1.224845e+00	1.245676e+00	1.264537e+00	1.276949e+00	1.284005e+00	1.287789e+00	1.289666e+00	1.184249e+00	1.185173e+00	1.186731e+00	1.188846e+00	1.191661e+00	1.194954e+00	1.199379e+00	1.205691e+00	1.212915e+00	1.209443e+00	1.205076e+00	1.219391e+00	1.244029e+00	1.264235e+00	1.276900e+00	1.283996e+00	1.287788e+00	1.289666e+00	1.180341e+00	1.181068e+00	1.182712e+00	1.184883e+00	1.187934e+00	1.191162e+00	1.195720e+00	1.201482e+00	1.205286e+00	1.198399e+00	1.194850e+00	1.213411e+00	1.241927e+00	1.263812e+00	1.276843e+00	1.283990e+00	1.287787e+00	1.289665e+00	1.188812e+00	1.188997e+00	1.190632e+00	1.192564e+00	1.195201e+00	1.197408e+00	1.200630e+00	1.202620e+00	1.200053e+00	1.189096e+00	1.187549e+00	1.209036e+00	1.240005e+00	1.263313e+00	1.276762e+00	1.283981e+00	1.287786e+00	1.289665e+00	1.146881e+00	1.147638e+00	1.149659e+00	1.151836e+00	1.154040e+00	1.155969e+00	1.158608e+00	1.157736e+00	1.156444e+00	1.157040e+00	1.174742e+00	1.205554e+00	1.238790e+00	1.262919e+00	1.276681e+00	1.283970e+00	1.287785e+00	1.289664e+00	9.519898e-01	9.553330e-01	9.587841e-01	9.629470e-01	9.658864e-01	9.714020e-01	9.776671e-01	9.900991e-01	1.021459e+00	1.071777e+00	1.141602e+00	1.198291e+00	1.237558e+00	1.262629e+00	1.276614e+00	1.283960e+00	1.287784e+00	1.289663e+00	8.050945e-01	8.102542e-01	8.127289e-01	8.165323e-01	8.191855e-01	8.265949e-01	8.365902e-01	8.621881e-01	9.106647e-01	9.873746e-01	1.098634e+00	1.187309e+00	1.235801e+00	1.262351e+00	1.276558e+00	1.283951e+00	1.287783e+00	1.289663e+00	8.010377e-01	8.029292e-01	8.035997e-01	8.053358e-01	8.084344e-01	8.153554e-01	8.268949e-01	8.511541e-01	8.899916e-01	9.555449e-01	1.068568e+00	1.176560e+00	1.233809e+00	1.262074e+00	1.276508e+00	1.283942e+00	1.287782e+00	1.289662e+00	8.195025e-01	8.201132e-01	8.209882e-01	8.232405e-01	8.271404e-01	8.344518e-01	8.457066e-01	8.670107e-01	8.978666e-01	9.532060e-01	1.055186e+00	1.168283e+00	1.231944e+00	1.261817e+00	1.276467e+00	1.283934e+00	1.287781e+00	1.289661e+00	8.370416e-01	8.377608e-01	8.391349e-01	8.414605e-01	8.452696e-01	8.516830e-01	8.618908e-01	8.807707e-01	9.075615e-01	9.594204e-01	1.052712e+00	1.162972e+00	1.230402e+00	1.261600e+00	1.276437e+00	1.283928e+00	1.287779e+00	1.289661e+00	8.465755e-01	8.473582e-01	8.488286e-01	8.508745e-01	8.546385e-01	8.605011e-01	8.706946e-01	8.885997e-01	9.146656e-01	9.675861e-01	1.056116e+00	1.160404e+00	1.229273e+00	1.261434e+00	1.276418e+00	1.283923e+00	1.287779e+00	1.289661e+00	8.532648e-01	8.539876e-01	8.554851e-01	8.573354e-01	8.612480e-01	8.667247e-01	8.772772e-01	8.946044e-01	9.215154e-01	9.773926e-01	1.063043e+00	1.160227e+00	1.228597e+00	1.261328e+00	1.276412e+00	1.283921e+00	1.287778e+00	1.289661e+00	8.590774e-01	8.597551e-01	8.612937e-01	8.630954e-01	8.672225e-01	8.725636e-01	8.839478e-01	9.010912e-01	9.299753e-01	9.892298e-01	1.072333e+00	1.162017e+00	1.228378e+00	1.261286e+00	1.276420e+00	1.283923e+00	1.287778e+00	1.289661e+00	8.644486e-01	8.652039e-01	8.667896e-01	8.687685e-01	8.731114e-01	8.787352e-01	8.911399e-01	9.083140e-01	9.402730e-01	1.003023e+00	1.083306e+00	1.165357e+00	1.228602e+00	1.261312e+00	1.276441e+00	1.283928e+00	1.287780e+00	1.289662e+00	8.695143e-01	8.704194e-01	8.719583e-01	8.742787e-01	8.786368e-01	8.849320e-01	8.982655e-01	9.159741e-01	9.523758e-01	1.018529e+00	1.095447e+00	1.169838e+00	1.229230e+00	1.261410e+00	1.276478e+00	1.283937e+00	1.287782e+00	1.289663e+00	8.735266e-01	8.746414e-01	8.761152e-01	8.789603e-01	8.832609e-01	8.908784e-01	9.050308e-01	9.242044e-01	9.664211e-01	1.035565e+00	1.108306e+00	1.175100e+00	1.230221e+00	1.261583e+00	1.276533e+00	1.283953e+00	1.287787e+00	1.289666e+00	8.766852e-01	8.780405e-01	8.795836e-01	8.830563e-01	8.875028e-01	8.969524e-01	9.115370e-01	9.334958e-01	9.826464e-01	1.053843e+00	1.121428e+00	1.180869e+00	1.231531e+00	1.261836e+00	1.276608e+00	1.283976e+00	1.287794e+00	1.289671e+00	8.799465e-01	8.814123e-01	8.831827e-01	8.870512e-01	8.919029e-01	9.029740e-01	9.177078e-01	9.444458e-01	1.001198e+00	1.072891e+00	1.134467e+00	1.186944e+00	1.233126e+00	1.262176e+00	1.276708e+00	1.284009e+00	1.287806e+00	1.289678e+00	8.821325e-01	8.835685e-01	8.857933e-01	8.897372e-01	8.955564e-01	9.079358e-01	9.237492e-01	9.578888e-01	1.021979e+00	1.092178e+00	1.147262e+00	1.193194e+00	1.234979e+00	1.262611e+00	1.276839e+00	1.284054e+00	1.287822e+00	1.289688e+00	8.822859e-01	8.837795e-01	8.867523e-01	8.908085e-01	8.985933e-01	9.121928e-01	9.311505e-01	9.749910e-01	1.045002e+00	1.111481e+00	1.159763e+00	1.199562e+00	1.237082e+00	1.263157e+00	1.277009e+00	1.284116e+00	1.287846e+00	1.289703e+00	8.821142e-01	8.838923e-01	8.876296e-01	8.921939e-01	9.024429e-01	9.170076e-01	9.417174e-01	9.964558e-01	1.069753e+00	1.130500e+00	1.171930e+00	1.206022e+00	1.239432e+00	1.263828e+00	1.277227e+00	1.284198e+00	1.287880e+00	1.289723e+00	8.824866e-01	8.848124e-01	8.890016e-01	8.947001e-01	9.069794e-01	9.230517e-01	9.567355e-01	1.022051e+00	1.095312e+00	1.149035e+00	1.183760e+00	1.212568e+00	1.242035e+00	1.264645e+00	1.277505e+00	1.284308e+00	1.287926e+00	1.289751e+00	8.821747e-01	8.852986e-01	8.897509e-01	8.974583e-01	9.114261e-01	9.315782e-01	9.774877e-01	1.051463e+00	1.121125e+00	1.167000e+00	1.195270e+00	1.219192e+00	1.244896e+00	1.265628e+00	1.277859e+00	1.284453e+00	1.287989e+00	1.289790e+00	8.805875e-01	8.847733e-01	8.901245e-01	9.008919e-01	9.170276e-01	9.451562e-01	1.004987e+00	1.083752e+00	1.146621e+00	1.184308e+00	1.206476e+00	1.225888e+00	1.248018e+00	1.266796e+00	1.278302e+00	1.284640e+00	1.288073e+00	1.289841e+00	8.809526e-01	8.861077e-01	8.933646e-01	9.070183e-01	9.263312e-01	9.661742e-01	1.038873e+00	1.117341e+00	1.171380e+00	1.200907e+00	1.217390e+00	1.232650e+00	1.251396e+00	1.268163e+00	1.278849e+00	1.284879e+00	1.288182e+00	1.289908e+00	8.833606e-01	8.894591e-01	8.992603e-01	9.151008e-01	9.408683e-01	9.958525e-01	1.078130e+00	1.151115e+00	1.195156e+00	1.216781e+00	1.228026e+00	1.239459e+00	1.255014e+00	1.269738e+00	1.279514e+00	1.285178e+00	1.288324e+00	1.289995e+00	8.855424e-01	8.931106e-01	9.057904e-01	9.255597e-01	9.635342e-01	1.034938e+00	1.120808e+00	1.184056e+00	1.217719e+00	1.231900e+00	1.238355e+00	1.246275e+00	1.258836e+00	1.271512e+00	1.280304e+00	1.285545e+00	1.288501e+00	1.290105e+00	8.874733e-01	8.979344e-01	9.153446e-01	9.440017e-01	9.984875e-01	1.082683e+00	1.164388e+00	1.215499e+00	1.238913e+00	1.246209e+00	1.248306e+00	1.253027e+00	1.262801e+00	1.273464e+00	1.281216e+00	1.285982e+00	1.288718e+00	1.290239e+00	8.949915e-01	9.116593e-01	9.369841e-01	9.780394e-01	1.047827e+00	1.136470e+00	1.207015e+00	1.244956e+00	1.258608e+00	1.259632e+00	1.257796e+00	1.259624e+00	1.266827e+00	1.275554e+00	1.282238e+00	1.286487e+00	1.288975e+00	1.290398e+00	9.241950e-01	9.455159e-01	9.770517e-01	1.028541e+00	1.107817e+00	1.191454e+00	1.247065e+00	1.271985e+00	1.276678e+00	1.272086e+00	1.266729e+00	1.265962e+00	1.270825e+00	1.277727e+00	1.283347e+00	1.287051e+00	1.289269e+00	1.290579e+00	9.595794e-01	9.858326e-01	1.025226e+00	1.088111e+00	1.171748e+00	1.243712e+00	1.283640e+00	1.296406e+00	1.293067e+00	1.283513e+00	1.275021e+00	1.271943e+00	1.274702e+00	1.279920e+00	1.284508e+00	1.287659e+00	1.289593e+00	1.290777e+00	9.955535e-01	1.032150e+00	1.083122e+00	1.155962e+00	1.235817e+00	1.291679e+00	1.316307e+00	1.318102e+00	1.307710e+00	1.293829e+00	1.282588e+00	1.277478e+00	1.278375e+00	1.282070e+00	1.285685e+00	1.288290e+00	1.289937e+00	1.290984e+00	1.055001e+00	1.096689e+00	1.154212e+00	1.228406e+00	1.295726e+00	1.334200e+00	1.344839e+00	1.337076e+00	1.320607e+00	1.302986e+00	1.289382e+00	1.282507e+00	1.281778e+00	1.284121e+00	1.286839e+00	1.288924e+00	1.290288e+00	1.291192e+00	1.110773e+00	1.163295e+00	1.228438e+00	1.298307e+00	1.349340e+00	1.371282e+00	1.369525e+00	1.353523e+00	1.331854e+00	1.311022e+00	1.295405e+00	1.287011e+00	1.284876e+00	1.286034e+00	1.287942e+00	1.289541e+00	1.290636e+00	1.291393e+00	1.193359e+00	1.247466e+00	1.308255e+00	1.363122e+00	1.395564e+00	1.402515e+00	1.390331e+00	1.367509e+00	1.341519e+00	1.317991e+00	1.300685e+00	1.290998e+00	1.287658e+00	1.287786e+00	1.288974e+00	1.290128e+00	1.290969e+00	1.291581e+00	1.273032e+00	1.326798e+00	1.378723e+00	1.417987e+00	1.434532e+00	1.428986e+00	1.408100e+00	1.379534e+00	1.349878e+00	1.324066e+00	1.305323e+00	1.294524e+00	1.290143e+00	1.289376e+00	1.289926e+00	1.290677e+00	1.291283e+00	1.291753e+00	1.355722e+00	1.403772e+00	1.441289e+00	1.464168e+00	1.466583e+00	1.450726e+00	1.422864e+00	1.389686e+00	1.357038e+00	1.329354e+00	1.309407e+00	1.297651e+00	1.292368e+00	1.290819e+00	1.290800e+00	1.291187e+00	1.291575e+00	1.291908e+00	1.448459e+00	1.472662e+00	1.492369e+00	1.500970e+00	1.492552e+00	1.468823e+00	1.435449e+00	1.398498e+00	1.363342e+00	1.334068e+00	1.313072e+00	1.300467e+00	1.294382e+00	1.292137e+00	1.291608e+00	1.291662e+00	1.291847e+00	1.292048e+00	1.484953e+00	1.514543e+00	1.530997e+00	1.531071e+00	1.514303e+00	1.484138e+00	1.446252e+00	1.406204e+00	1.368968e+00	1.338348e+00	1.316427e+00	1.303053e+00	1.296239e+00	1.293362e+00	1.292363e+00	1.292108e+00	1.292102e+00	1.292177e+00	1.542899e+00	1.557596e+00	1.561741e+00	1.553037e+00	1.530392e+00	1.496042e+00	1.455111e+00	1.412829e+00	1.374002e+00	1.342282e+00	1.319553e+00	1.305474e+00	1.297987e+00	1.294522e+00	1.293085e+00	1.292537e+00	1.292347e+00	1.292299e+00	1.587958e+00	1.590101e+00	1.587437e+00	1.572998e+00	1.545488e+00	1.507270e+00	1.463493e+00	1.419143e+00	1.378839e+00	1.346078e+00	1.322565e+00	1.307804e+00	1.299672e+00	1.295647e+00	1.293788e+00	1.292956e+00	1.292587e+00	1.292418e+00	1.619064e+00	1.618407e+00	1.610844e+00	1.590491e+00	1.558391e+00	1.516927e+00	1.470890e+00	1.424905e+00	1.383395e+00	1.349724e+00	1.325485e+00	1.310075e+00	1.301323e+00	1.296759e+00	1.294488e+00	1.293376e+00	1.292829e+00	1.292540e+00	1.647671e+00	1.639913e+00	1.626428e+00	1.602222e+00	1.567694e+00	1.524487e+00	1.477122e+00	1.430059e+00	1.387646e+00	1.353212e+00	1.328319e+00	1.312300e+00	1.302960e+00	1.297872e+00	1.295195e+00	1.293803e+00	1.293077e+00	1.292668e+00	1.658797e+00	1.651281e+00	1.637439e+00	1.612127e+00	1.576101e+00	1.531484e+00	1.482967e+00	1.434958e+00	1.391728e+00	1.356584e+00	1.331074e+00	1.314485e+00	1.304586e+00	1.298992e+00	1.295915e+00	1.294242e+00	1.293334e+00	1.292805e+00	1.658172e+00	1.652140e+00	1.639766e+00	1.615591e+00	1.580305e+00	1.536011e+00	1.487442e+00	1.439115e+00	1.395392e+00	1.359706e+00	1.333680e+00	1.316594e+00	1.306189e+00	1.300115e+00	1.296646e+00	1.294691e+00	1.293602e+00	1.292952e+00	1.643562e+00	1.641141e+00	1.633504e+00	1.613845e+00	1.581575e+00	1.538869e+00	1.490926e+00	1.442649e+00	1.398638e+00	1.362534e+00	1.336088e+00	1.318592e+00	1.307745e+00	1.301228e+00	1.297381e+00	1.295148e+00	1.293876e+00	1.293109e+00	1.624085e+00	1.623927e+00	1.620366e+00	1.606213e+00	1.578696e+00	1.539150e+00	1.492898e+00	1.445282e+00	1.401309e+00	1.364964e+00	1.338226e+00	1.320429e+00	1.309222e+00	1.302310e+00	1.298108e+00	1.295605e+00	1.294153e+00	1.293273e+00	1.594908e+00	1.597429e+00	1.598540e+00	1.591576e+00	1.571016e+00	1.536403e+00	1.493029e+00	1.446794e+00	1.403261e+00	1.366896e+00	1.340022e+00	1.322055e+00	1.310585e+00	1.303336e+00	1.298810e+00	1.296050e+00	1.294425e+00	1.293441e+00	1.569367e+00	1.571965e+00	1.574543e+00	1.572688e+00	1.559272e+00	1.530765e+00	1.491324e+00	1.447160e+00	1.404467e+00	1.368296e+00	1.341443e+00	1.323438e+00	1.311808e+00	1.304286e+00	1.299470e+00	1.296473e+00	1.294686e+00	1.293606e+00	1.539793e+00	1.543250e+00	1.547161e+00	1.549366e+00	1.543017e+00	1.521625e+00	1.487283e+00	1.446082e+00	1.404775e+00	1.369093e+00	1.342449e+00	1.324554e+00	1.312870e+00	1.305141e+00	1.300074e+00	1.296863e+00	1.294927e+00	1.293764e+00	1.511397e+00	1.514922e+00	1.519315e+00	1.523829e+00	1.523450e+00	1.509478e+00	1.481084e+00	1.443612e+00	1.404198e+00	1.369299e+00	1.343050e+00	1.325405e+00	1.313765e+00	1.305890e+00	1.300612e+00	1.297213e+00	1.295143e+00	1.293909e+00	1.488252e+00	1.490840e+00	1.494434e+00	1.498833e+00	1.501892e+00	1.494591e+00	1.472652e+00	1.439646e+00	1.402679e+00	1.368914e+00	1.343262e+00	1.326004e+00	1.314497e+00	1.306532e+00	1.301080e+00	1.297518e+00	1.295331e+00	1.294037e+00	1.463507e+00	1.465850e+00	1.469319e+00	1.473656e+00	1.478740e+00	1.477190e+00	1.461944e+00	1.434079e+00	1.400162e+00	1.367932e+00	1.343106e+00	1.326374e+00	1.315078e+00	1.307070e+00	1.301478e+00	1.297778e+00	1.295491e+00	1.294148e+00	1.439804e+00	1.441903e+00	1.445194e+00	1.449430e+00	1.455292e+00	1.458063e+00	1.449226e+00	1.426958e+00	1.396653e+00	1.366378e+00	1.342619e+00	1.326545e+00	1.315529e+00	1.307515e+00	1.301809e+00	1.297995e+00	1.295622e+00	1.294241e+00	1.417886e+00	1.419731e+00	1.422659e+00	1.426692e+00	1.432471e+00	1.437949e+00	1.434784e+00	1.418323e+00	1.392147e+00	1.364255e+00	1.341831e+00	1.326550e+00	1.315870e+00	1.307876