# vtk DataFile Version 3.0
vtk output
ASCII
DATASET UNSTRUCTURED_GRID
POINTS 7950 double
1.868554e-04	9.823874e-04	0.0	3.915360e-04	2.058491e-03	0.0	6.385526e-04	3.228572e-03	0.0	1.293340e-03	4.367380e-03	0.0	2.010169e-03	5.614092e-03	0.0	2.947029e-03	6.864050e-03	0.0	4.143577e-03	8.102820e-03	0.0	5.459064e-03	9.450375e-03	0.0	7.122842e-03	1.066559e-02	0.0	8.941692e-03	1.199406e-02	0.0	1.103597e-02	1.327966e-02	0.0	1.338228e-02	1.459267e-02	0.0	1.598703e-02	1.594133e-02	0.0	1.890777e-02	1.725847e-02	0.0	2.210849e-02	1.865945e-02	0.0	2.567285e-02	2.000547e-02	0.0	2.956164e-02	2.145646e-02	0.0	3.385972e-02	2.285362e-02	0.0	3.854108e-02	2.435653e-02	0.0	4.368040e-02	2.582572e-02	0.0	4.927227e-02	2.738496e-02	0.0	5.537690e-02	2.894072e-02	0.0	6.201183e-02	3.055473e-02	0.0	6.921960e-02	3.220518e-02	0.0	7.704183e-02	3.386574e-02	0.0	8.550455e-02	3.559254e-02	0.0	9.466068e-02	3.731025e-02	0.0	1.045394e-01	3.905829e-02	0.0	1.151767e-01	4.084582e-02	0.0	1.266170e-01	4.262014e-02	0.0	1.388917e-01	4.439176e-02	0.0	1.520305e-01	4.617073e-02	0.0	1.660637e-01	4.794171e-02	0.0	1.810190e-01	4.966807e-02	0.0	1.969151e-01	5.134087e-02	0.0	2.137633e-01	5.296617e-02	0.0	2.315701e-01	5.452771e-02	0.0	2.503342e-01	5.600817e-02	0.0	2.700451e-01	5.738966e-02	0.0	2.906823e-01	5.865554e-02	0.0	3.122151e-01	5.978917e-02	0.0	3.346022e-01	6.076945e-02	0.0	3.577909e-01	6.157587e-02	0.0	3.817177e-01	6.219047e-02	0.0	4.063079e-01	6.259658e-02	0.0	4.314771e-01	6.277801e-02	0.0	4.571312e-01	6.271279e-02	0.0	4.831679e-01	6.237272e-02	0.0	5.094778e-01	6.172961e-02	0.0	5.359460e-01	6.075975e-02	0.0	5.624543e-01	5.944931e-02	0.0	5.888838e-01	5.780079e-02	0.0	6.151186e-01	5.584264e-02	0.0	6.410476e-01	5.361910e-02	0.0	6.665658e-01	5.117565e-02	0.0	6.915745e-01	4.854862e-02	0.0	7.159822e-01	4.576233e-02	0.0	7.397095e-01	4.286300e-02	0.0	7.626857e-01	3.988169e-02	0.0	7.848515e-01	3.685033e-02	0.0	8.061581e-01	3.379700e-02	0.0	8.265679e-01	3.074934e-02	0.0	8.460540e-01	2.773240e-02	0.0	8.645993e-01	2.476746e-02	0.0	8.821956e-01	2.186922e-02	0.0	8.988433e-01	1.905044e-02	0.0	9.145503e-01	1.631983e-02	0.0	9.293310e-01	1.368381e-02	0.0	9.432053e-01	1.114422e-02	0.0	9.561999e-01	8.710579e-03	0.0	9.683439e-01	6.384289e-03	0.0	9.796691e-01	4.161210e-03	0.0	9.902099e-01	2.038145e-03	0.0	0.000000e+00	0.000000e+00	0.0	1.000000e+00	0.000000e+00	0.0	9.900132e-01	5.126793e-04	0.0	9.792687e-01	9.086466e-04	0.0	9.677311e-01	1.146431e-03	0.0	9.553684e-01	1.202088e-03	0.0	9.421516e-01	1.050696e-03	0.0	9.280558e-01	6.609431e-04	0.0	9.130605e-01	1.372597e-05	0.0	8.971495e-01	-8.926563e-04	0.0	8.803130e-01	-2.069856e-03	0.0	8.625473e-01	-3.524749e-03	0.0	8.438564e-01	-5.259986e-03	0.0	8.242524e-01	-7.275588e-03	0.0	8.037565e-01	-9.567165e-03	0.0	7.823991e-01	-1.212752e-02	0.0	7.602213e-01	-1.494921e-02	0.0	7.372740e-01	-1.801980e-02	0.0	7.136169e-01	-2.131202e-02	0.0	6.893183e-01	-2.478834e-02	0.0	6.644540e-01	-2.839511e-02	0.0	6.391087e-01	-3.208042e-02	0.0	6.133743e-01	-3.578743e-02	0.0	5.873493e-01	-3.945724e-02	0.0	5.611365e-01	-4.302623e-02	0.0	5.348415e-01	-4.642315e-02	0.0	5.085711e-01	-4.956944e-02	0.0	4.824323e-01	-5.237892e-02	0.0	4.565321e-01	-5.476843e-02	0.0	4.309777e-01	-5.667197e-02	0.0	4.058744e-01	-5.804794e-02	0.0	3.813234e-01	-5.888588e-02	0.0	3.574185e-01	-5.920764e-02	0.0	3.342429e-01	-5.906792e-02	0.0	3.118664e-01	-5.854125e-02	0.0	2.903444e-01	-5.771457e-02	0.0	2.697185e-01	-5.666536e-02	0.0	2.500189e-01	-5.545157e-02	0.0	2.312653e-01	-5.411099e-02	0.0	2.134678e-01	-5.267151e-02	0.0	1.966279e-01	-5.115483e-02	0.0	1.807389e-01	-4.957929e-02	0.0	1.657891e-01	-4.794448e-02	0.0	1.517602e-01	-4.625659e-02	0.0	1.386245e-01	-4.455425e-02	0.0	1.263523e-01	-4.285170e-02	0.0	1.149134e-01	-4.114110e-02	0.0	1.042777e-01	-3.940408e-02	0.0	9.440055e-02	-3.769926e-02	0.0	8.524500e-02	-3.602248e-02	0.0	7.678466e-02	-3.432004e-02	0.0	6.896561e-02	-3.267589e-02	0.0	6.176132e-02	-3.103576e-02	0.0	5.513350e-02	-2.941432e-02	0.0	4.903557e-02	-2.785032e-02	0.0	4.345678e-02	-2.625926e-02	0.0	3.832874e-02	-2.476339e-02	0.0	3.366659e-02	-2.321108e-02	0.0	2.938429e-02	-2.177443e-02	0.0	2.551844e-02	-2.026911e-02	0.0	2.197260e-02	-1.888035e-02	0.0	1.879573e-02	-1.742967e-02	0.0	1.589415e-02	-1.607418e-02	0.0	1.331062e-02	-1.468736e-02	0.0	1.098029e-02	-1.334819e-02	0.0	8.903266e-03	-1.203627e-02	0.0	7.095700e-03	-1.069363e-02	0.0	5.442187e-03	-9.465423e-03	0.0	4.134843e-03	-8.110148e-03	0.0	2.943501e-03	-6.866853e-03	0.0	2.010037e-03	-5.614320e-03	0.0	1.294503e-03	-4.367088e-03	0.0	6.408772e-04	-3.227766e-03	0.0	3.921270e-04	-2.058341e-03	0.0	1.871407e-04	-9.823331e-04	0.0	1.010000e+00	0.000000e+00	0.0	1.020144e+00	0.000000e+00	0.0	1.030577e+00	0.000000e+00	0.0	1.041450e+00	0.000000e+00	0.0	1.052920e+00	0.000000e+00	0.0	1.065150e+00	0.000000e+00	0.0	1.078317e+00	0.000000e+00	0.0	1.092611e+00	0.000000e+00	0.0	1.108236e+00	0.000000e+00	0.0	1.125418e+00	0.000000e+00	0.0	1.144403e+00	0.000000e+00	0.0	1.165465e+00	0.000000e+00	0.0	1.188906e+00	0.000000e+00	0.0	1.215064e+00	0.000000e+00	0.0	1.244315e+00	0.000000e+00	0.0	1.277079e+00	0.000000e+00	0.0	1.313828e+00	0.000000e+00	0.0	1.355090e+00	0.000000e+00	0.0	1.401458e+00	0.000000e+00	0.0	1.453599e+00	0.000000e+00	0.0	1.512264e+00	0.000000e+00	0.0	1.578295e+00	0.000000e+00	0.0	1.652642e+00	0.000000e+00	0.0	1.736375e+00	0.000000e+00	0.0	1.830697e+00	0.000000e+00	0.0	1.936965e+00	0.000000e+00	0.0	2.056707e+00	0.000000e+00	0.0	2.191645e+00	0.000000e+00	0.0	2.343720e+00	0.000000e+00	0.0	2.515118e+00	0.000000e+00	0.0	2.708305e+00	0.000000e+00	0.0	2.926058e+00	0.000000e+00	0.0	3.171509e+00	0.000000e+00	0.0	3.448187e+00	0.000000e+00	0.0	3.760072e+00	0.000000e+00	0.0	4.111648e+00	0.000000e+00	0.0	4.507972e+00	0.000000e+00	0.0	4.954743e+00	0.000000e+00	0.0	5.458384e+00	0.000000e+00	0.0	6.026141e+00	0.000000e+00	0.0	6.666176e+00	0.000000e+00	0.0	7.387694e+00	0.000000e+00	0.0	8.201070e+00	0.000000e+00	0.0	9.118003e+00	0.000000e+00	0.0	1.015168e+01	0.000000e+00	0.0	1.131696e+01	0.000000e+00	0.0	1.263060e+01	0.000000e+00	0.0	1.411150e+01	0.000000e+00	0.0	1.578095e+01	0.000000e+00	0.0	1.766296e+01	0.000000e+00	0.0	1.978460e+01	0.000000e+00	0.0	2.217636e+01	0.000000e+00	0.0	2.487266e+01	0.000000e+00	0.0	2.791226e+01	0.000000e+00	0.0	3.133887e+01	0.000000e+00	0.0	3.520177e+01	0.000000e+00	0.0	3.955652e+01	0.000000e+00	0.0	4.446573e+01	0.000000e+00	0.0	5.000000e+01	0.000000e+00	0.0	5.000000e+01	1.000000e-03	0.0	5.000000e+01	2.133064e-03	0.0	5.000000e+01	3.549964e-03	0.0	5.000000e+01	5.439237e-03	0.0	5.000000e+01	8.052278e-03	0.0	5.000000e+01	1.173679e-02	0.0	5.000000e+01	1.698305e-02	0.0	5.000000e+01	2.448915e-02	0.0	5.000000e+01	3.525389e-02	0.0	5.000000e+01	5.070966e-02	0.0	5.000000e+01	7.291309e-02	0.0	5.000000e+01	1.048186e-01	0.0	5.000000e+01	1.506718e-01	0.0	5.000000e+01	2.165741e-01	0.0	5.000000e+01	3.112946e-01	0.0	5.000000e+01	4.474373e-01	0.0	5.000000e+01	6.431181e-01	0.0	5.000000e+01	9.243749e-01	0.0	5.000000e+01	1.328633e+00	0.0	5.000000e+01	1.909685e+00	0.0	5.000000e+01	2.744848e+00	0.0	5.000000e+01	3.945253e+00	0.0	5.000000e+01	5.670630e+00	0.0	5.000000e+01	8.150566e+00	0.0	5.000000e+01	1.171505e+01	0.0	5.000000e+01	1.683839e+01	0.0	5.000000e+01	2.420233e+01	0.0	5.000000e+01	3.478673e+01	0.0	5.000000e+01	5.000000e+01	0.0	5.000000e+01	-1.000000e-03	0.0	5.000000e+01	-2.133064e-03	0.0	5.000000e+01	-3.549964e-03	0.0	5.000000e+01	-5.439237e-03	0.0	5.000000e+01	-8.052278e-03	0.0	5.000000e+01	-1.173679e-02	0.0	5.000000e+01	-1.698305e-02	0.0	5.000000e+01	-2.448915e-02	0.0	5.000000e+01	-3.525389e-02	0.0	5.000000e+01	-5.070966e-02	0.0	5.000000e+01	-7.291309e-02	0.0	5.000000e+01	-1.048186e-01	0.0	5.000000e+01	-1.506718e-01	0.0	5.000000e+01	-2.165741e-01	0.0	5.000000e+01	-3.112946e-01	0.0	5.000000e+01	-4.474373e-01	0.0	5.000000e+01	-6.431181e-01	0.0	5.000000e+01	-9.243749e-01	0.0	5.000000e+01	-1.328633e+00	0.0	5.000000e+01	-1.909685e+00	0.0	5.000000e+01	-2.744848e+00	0.0	5.000000e+01	-3.945253e+00	0.0	5.000000e+01	-5.670630e+00	0.0	5.000000e+01	-8.150566e+00	0.0	5.000000e+01	-1.171505e+01	0.0	5.000000e+01	-1.683839e+01	0.0	5.000000e+01	-2.420233e+01	0.0	5.000000e+01	-3.478673e+01	0.0	5.000000e+01	-5.000000e+01	0.0	1.000000e+00	1.000000e-03	0.0	1.000000e+00	2.133064e-03	0.0	1.000000e+00	3.549964e-03	0.0	1.000000e+00	5.439237e-03	0.0	1.000000e+00	8.052278e-03	0.0	1.000000e+00	1.173679e-02	0.0	1.000000e+00	1.698305e-02	0.0	1.000000e+00	2.448915e-02	0.0	1.000000e+00	3.525389e-02	0.0	1.000000e+00	5.070966e-02	0.0	1.000000e+00	7.291309e-02	0.0	1.000000e+00	1.048186e-01	0.0	1.000000e+00	1.506718e-01	0.0	1.000000e+00	2.165741e-01	0.0	1.000000e+00	3.112946e-01	0.0	1.000000e+00	4.474373e-01	0.0	1.000000e+00	6.431181e-01	0.0	1.000000e+00	9.243749e-01	0.0	1.000000e+00	1.328633e+00	0.0	1.000000e+00	1.909685e+00	0.0	1.000000e+00	2.744848e+00	0.0	1.000000e+00	3.945253e+00	0.0	1.000000e+00	5.670630e+00	0.0	1.000000e+00	8.150566e+00	0.0	1.000000e+00	1.171505e+01	0.0	1.000000e+00	1.683839e+01	0.0	1.000000e+00	2.420233e+01	0.0	1.000000e+00	3.478673e+01	0.0	1.000000e+00	5.000000e+01	0.0	1.000000e+00	-1.000000e-03	0.0	1.000000e+00	-2.133064e-03	0.0	1.000000e+00	-3.549964e-03	0.0	1.000000e+00	-5.439237e-03	0.0	1.000000e+00	-8.052278e-03	0.0	1.000000e+00	-1.173679e-02	0.0	1.000000e+00	-1.698305e-02	0.0	1.000000e+00	-2.448915e-02	0.0	1.000000e+00	-3.525389e-02	0.0	1.000000e+00	-5.070966e-02	0.0	1.000000e+00	-7.291309e-02	0.0	1.000000e+00	-1.048186e-01	0.0	1.000000e+00	-1.506718e-01	0.0	1.000000e+00	-2.165741e-01	0.0	1.000000e+00	-3.112946e-01	0.0	1.000000e+00	-4.474373e-01	0.0	1.000000e+00	-6.431181e-01	0.0	1.000000e+00	-9.243749e-01	0.0	1.000000e+00	-1.328633e+00	0.0	1.000000e+00	-1.909685e+00	0.0	1.000000e+00	-2.744848e+00	0.0	1.000000e+00	-3.945253e+00	0.0	1.000000e+00	-5.670630e+00	0.0	1.000000e+00	-8.150566e+00	0.0	1.000000e+00	-1.171505e+01	0.0	1.000000e+00	-1.683839e+01	0.0	1.000000e+00	-2.420233e+01	0.0	1.000000e+00	-3.478673e+01	0.0	1.000000e+00	-5.000000e+01	0.0	1.010000e+00	5.000000e+01	0.0	1.020144e+00	5.000000e+01	0.0	1.030577e+00	5.000000e+01	0.0	1.04145
[...]
POINT_DATA 7950

SCALARS Density double 1
LOOKUP_TABLE default
1.439245e+00	1.424911e+00	1.303755e+00	1.222472e+00	1.201434e+00	1.107737e+00	1.066984e+00	1.007112e+00	9.615449e-01	9.561123e-01	9.273554e-01	9.171328e-01	8.973652e-01	8.877821e-01	8.770443e-01	8.706866e-01	8.662500e-01	8.628703e-01	8.629823e-01	8.620325e-01	8.646536e-01	8.647970e-01	8.684500e-01	8.685110e-01	8.709649e-01	8.719753e-01	8.715187e-01	8.744717e-01	8.746286e-01	8.731328e-01	8.737485e-01	8.744358e-01	8.728347e-01	8.700293e-01	8.681971e-01	8.668916e-01	8.650997e-01	8.628178e-01	8.601471e-01	8.571731e-01	8.537103e-01	8.497252e-01	8.452911e-01	8.406440e-01	8.355014e-01	8.297369e-01	8.228394e-01	8.160470e-01	8.083087e-01	7.964155e-01	7.745554e-01	7.735170e-01	8.642295e-01	1.113650e+00	1.202619e+00	1.185198e+00	1.165392e+00	1.170493e+00	1.183764e+00	1.194446e+00	1.203775e+00	1.214103e+00	1.225098e+00	1.236000e+00	1.246756e+00	1.257660e+00	1.268752e+00	1.280346e+00	1.292471e+00	1.306077e+00	1.321165e+00	1.343210e+00	1.353869e+00	1.505811e+00	1.329186e+00	1.428624e+00	1.425767e+00	1.426769e+00	1.426482e+00	1.426804e+00	1.424977e+00	1.422425e+00	1.419019e+00	1.414927e+00	1.410137e+00	1.404727e+00	1.398696e+00	1.392123e+00	1.384943e+00	1.376927e+00	1.367902e+00	1.357771e+00	1.346657e+00	1.334715e+00	1.321952e+00	1.308366e+00	1.293854e+00	1.278341e+00	1.261825e+00	1.244656e+00	1.227777e+00	1.212580e+00	1.200696e+00	1.193624e+00	1.192241e+00	1.196381e+00	1.204928e+00	1.216113e+00	1.228086e+00	1.239639e+00	1.250377e+00	1.260406e+00	1.269796e+00	1.278340e+00	1.286606e+00	1.295955e+00	1.305766e+00	1.314476e+00	1.322471e+00	1.332451e+00	1.342876e+00	1.350846e+00	1.361375e+00	1.371946e+00	1.381481e+00	1.393871e+00	1.403659e+00	1.416868e+00	1.427988e+00	1.442024e+00	1.455010e+00	1.469814e+00	1.485078e+00	1.500479e+00	1.518557e+00	1.534107e+00	1.555379e+00	1.570205e+00	1.594175e+00	1.607857e+00	1.628285e+00	1.645805e+00	1.655281e+00	1.661420e+00	1.656967e+00	1.639990e+00	1.600238e+00	1.579569e+00	1.334643e+00	1.334482e+00	1.336419e+00	1.336315e+00	1.335541e+00	1.334600e+00	1.333367e+00	1.331826e+00	1.330024e+00	1.327994e+00	1.325773e+00	1.323400e+00	1.320919e+00	1.318369e+00	1.315788e+00	1.313206e+00	1.310648e+00	1.308131e+00	1.305662e+00	1.303238e+00	1.300845e+00	1.298460e+00	1.296058e+00	1.293628e+00	1.291207e+00	1.288910e+00	1.286952e+00	1.285622e+00	1.285193e+00	1.285781e+00	1.287238e+00	1.289156e+00	1.291022e+00	1.292443e+00	1.293287e+00	1.293652e+00	1.293724e+00	1.293652e+00	1.293512e+00	1.293333e+00	1.293135e+00	1.292939e+00	1.292764e+00	1.292621e+00	1.292511e+00	1.292433e+00	1.292379e+00	1.292344e+00	1.292321e+00	1.292306e+00	1.292296e+00	1.292288e+00	1.292281e+00	1.292273e+00	1.292262e+00	1.292244e+00	1.292225e+00	1.292160e+00	1.292080e+00	1.292079e+00	1.292079e+00	1.292079e+00	1.292079e+00	1.292079e+00	1.292080e+00	1.292082e+00	1.292082e+00	1.292077e+00	1.292067e+00	1.292055e+00	1.292058e+00	1.292091e+00	1.292153e+00	1.292200e+00	1.292143e+00	1.291913e+00	1.291557e+00	1.291276e+00	1.291288e+00	1.291607e+00	1.292003e+00	1.292227e+00	1.292267e+00	1.292243e+00	1.292243e+00	1.292203e+00	1.292140e+00	1.291724e+00	1.292080e+00	1.292080e+00	1.292080e+00	1.292080e+00	1.292080e+00	1.292080e+00	1.292080e+00	1.292080e+00	1.292081e+00	1.292081e+00	1.292082e+00	1.292083e+00	1.292084e+00	1.292086e+00	1.292088e+00	1.292091e+00	1.292096e+00	1.292103e+00	1.292112e+00	1.292126e+00	1.292145e+00	1.292170e+00	1.292201e+00	1.292234e+00	1.292273e+00	1.292306e+00	1.292381e+00	1.292494e+00	1.292931e+00	1.383039e+00	1.376180e+00	1.391592e+00	1.380705e+00	1.379984e+00	1.372325e+00	1.366665e+00	1.357684e+00	1.348422e+00	1.338141e+00	1.327661e+00	1.316826e+00	1.305531e+00	1.293509e+00	1.280793e+00	1.267418e+00	1.255172e+00	1.248249e+00	1.249089e+00	1.255787e+00	1.264522e+00	1.272480e+00	1.278594e+00	1.282920e+00	1.285872e+00	1.287864e+00	1.289208e+00	1.290043e+00	1.290486e+00	1.391363e+00	1.394366e+00	1.415004e+00	1.406839e+00	1.406157e+00	1.401842e+00	1.400404e+00	1.396991e+00	1.393308e+00	1.388593e+00	1.383016e+00	1.376206e+00	1.368076e+00	1.358699e+00	1.348471e+00	1.338411e+00	1.329830e+00	1.323253e+00	1.318139e+00	1.313680e+00	1.309497e+00	1.305656e+00	1.302350e+00	1.299682e+00	1.297635e+00	1.296115e+00	1.295017e+00	1.294290e+00	1.293831e+00	1.290485e+00	1.290485e+00	1.290484e+00	1.290483e+00	1.290483e+00	1.290482e+00	1.290481e+00	1.290480e+00	1.290479e+00	1.290478e+00	1.290477e+00	1.290476e+00	1.290475e+00	1.290473e+00	1.290472e+00	1.290470e+00	1.290468e+00	1.290466e+00	1.290464e+00	1.290462e+00	1.290459e+00	1.290456e+00	1.290453e+00	1.290449e+00	1.290445e+00	1.290441e+00	1.290436e+00	1.290431e+00	1.290425e+00	1.290419e+00	1.290412e+00	1.290405e+00	1.290397e+00	1.290389e+00	1.290380e+00	1.290371e+00	1.290361e+00	1.290352e+00	1.290342e+00	1.290333e+00	1.290324e+00	1.290317e+00	1.290312e+00	1.290310e+00	1.290311e+00	1.290318e+00	1.290331e+00	1.290351e+00	1.290382e+00	1.290423e+00	1.290477e+00	1.290545e+00	1.290631e+00	1.290732e+00	1.290864e+00	1.291004e+00	1.291224e+00	1.291416e+00	1.293831e+00	1.293832e+00	1.293833e+00	1.293833e+00	1.293834e+00	1.293834e+00	1.293835e+00	1.293836e+00	1.293836e+00	1.293837e+00	1.293838e+00	1.293839e+00	1.293840e+00	1.293841e+00	1.293843e+00	1.293844e+00	1.293846e+00	1.293848e+00	1.293850e+00	1.293852e+00	1.293854e+00	1.293857e+00	1.293860e+00	1.293864e+00	1.293867e+00	1.293871e+00	1.293876e+00	1.293881e+00	1.293887e+00	1.293893e+00	1.293900e+00	1.293907e+00	1.293915e+00	1.293924e+00	1.293934e+00	1.293944e+00	1.293955e+00	1.293967e+00	1.293979e+00	1.293992e+00	1.294004e+00	1.294016e+00	1.294027e+00	1.294036e+00	1.294043e+00	1.294045e+00	1.294043e+00	1.294034e+00	1.294017e+00	1.293990e+00	1.293950e+00	1.293898e+00	1.293828e+00	1.293743e+00	1.293632e+00	1.293512e+00	1.293330e+00	1.293171e+00	1.290487e+00	1.290487e+00	1.290488e+00	1.290489e+00	1.290490e+00	1.290491e+00	1.290492e+00	1.290493e+00	1.290494e+00	1.290495e+00	1.290496e+00	1.290498e+00	1.290500e+00	1.290501e+00	1.290503e+00	1.290505e+00	1.290507e+00	1.290510e+00	1.290512e+00	1.290515e+00	1.290518e+00	1.290521e+00	1.290524e+00	1.290528e+00	1.290532e+00	1.290536e+00	1.290540e+00	1.290545e+00	1.290551e+00	1.290556e+00	1.290562e+00	1.290570e+00	1.290578e+00	1.290588e+00	1.290599e+00	1.290611e+00	1.290625e+00	1.290641e+00	1.290658e+00	1.290678e+00	1.290701e+00	1.290726e+00	1.290754e+00	1.290786e+00	1.290821e+00	1.290860e+00	1.290904e+00	1.290951e+00	1.291003e+00	1.291060e+00	1.291120e+00	1.291185e+00	1.291253e+00	1.291324e+00	1.291398e+00	1.291472e+00	1.291547e+00	1.291621e+00	1.291693e+00	1.291762e+00	1.291828e+00	1.291889e+00	1.291946e+00	1.291997e+00	1.292043e+00	1.292084e+00	1.292121e+00	1.292152e+00	1.292181e+00	1.292205e+00	1.292227e+00	1.292247e+00	1.292266e+00	1.292284e+00	1.292301e+00	1.292319e+00	1.292338e+00	1.292359e+00	1.292382e+00	1.292407e+00	1.292436e+00	1.292468e+00	1.292503e+00	1.292543e+00	1.292586e+00	1.292633e+00	1.292683e+00	1.292736e+00	1.292792e+00	1.292850e+00	1.292909e+00	1.292968e+00	1.293028e+00	1.293086e+00	1.293143e+00	1.293198e+00	1.293250e+00	1.293300e+00	1.293347e+00	1.293390e+00	1.293431e+00	1.293468e+00	1.293502e+00	1.293534e+00	1.293562e+00	1.293588e+00	1.293611e+00	1.293633e+00	1.293652e+00	1.293669e+00	1.293685e+00	1.293699e+00	1.293711e+00	1.293723e+00	1.293733e+00	1.293742e+00	1.293751e+00	1.293758e+00	1.293765e+00	1.293771e+00	1.293777e+00	1.293782e+00	1.293787e+00	1.293791e+00	1.293795e+00	1.293798e+00	1.293802e+00	1.293805e+00	1.293807e+00	1.293810e+00	1.293812e+00	1.293814e+00	1.293816e+00	1.293818e+00	1.293819e+00	1.293821e+00	1.293822e+00	1.293823e+00	1.293824e+00	1.293825e+00	1.293826e+00	1.293827e+00	1.293828e+00	1.293829e+00	1.293829e+00	1.293830e+00	1.293830e+00	1.364317e+00	1.366287e+00	1.366681e+00	1.361388e+00	1.360494e+00	1.357028e+00	1.353857e+00	1.348047e+00	1.341121e+00	1.332622e+00	1.323294e+00	1.313266e+00	1.302570e+00	1.291031e+00	1.278692e+00	1.265600e+00	1.253660e+00	1.247154e+00	1.248434e+00	1.255463e+00	1.264388e+00	1.272432e+00	1.278579e+00	1.282916e+00	1.285870e+00	1.287863e+00	1.289208e+00	1.290043e+00	1.345130e+00	1.345532e+00	1.344167e+00	1.343850e+00	1.344379e+00	1.343675e+00	1.341908e+00	1.338078e+00	1.332814e+00	1.325934e+00	1.317948e+00	1.308995e+00	1.299113e+00	1.288203e+00	1.276332e+00	1.263583e+00	1.251999e+00	1.245964e+00	1.247729e+00	1.255119e+00	1.264247e+00	1.272383e+00	1.278563e+00	1.282911e+00	1.285869e+00	1.287863e+00	1.289208e+00	1.290043e+00	1.322074e+00	1.323036e+00	1.323941e+00	1.325502e+00	1.326747e+00	1.327209e+00	1.326767e+00	1.325065e+00	1.322042e+00	1.317406e+00	1.311299e+00	1.303819e+00	1.295037e+00	1.284949e+00	1.273671e+00	1.261338e+00	1.250168e+00	1.244662e+00	1.246966e+00	1.254752e+00	1.264098e+00	1.272330e+00	1.278547e+00	1.282906e+00	1.285868e+00	1.287863e+00	1.289207e+00	1.290043e+00	1.307417e+00	1.308854e+00	1.310396e+00	1.311992e+00	1.313299e+00	1.314184e+00	1.314454e+00	1.313776e+00	1.311932e+00	1.308716e+00	1.304102e+00	1.298036e+00	1.290446e+00	1.281298e+00	1.270702e+00	1.258849e+00	1.248149e+00	1.243236e+00	1.246138e+00	1.254356e+00	1.263939e+00	1.272274e+00	1.278529e+00	1.282901e+00	1.285866e+00	1.287863e+00	1.289207e+00	1.290043e+00	1.293904e+00	1.295392e+00	1.296925e+00	1.298465e+00	1.299902e+00	1.301096e+00	1.301815e+00	1.301825e+00	1.300990e+00	1.299138e+00	1.296060e+00	1.291509e+00	1.285253e+00	1.277188e+00	1.267384e+00	1.256085e+00	1.245923e+00	1.241677e+00	1.245241e+00	1.253933e+00	1.263770e+00	1.272216e+00	1.278511e+00	1.282896e+00	1.285865e+00	1.287862e+00	1.289207e+00	1.290043e+00	1.281802e+00	1.283299e+00	1.284852e+00	1.286466e+00	1.288049e+00	1.289434e+00	1.290409e+00	1.290830e+00	1.290618e+00	1.289663e+00	1.287735e+00	1.284503e+00	1.279558e+00	1.272641e+00	1.263706e+00	1.253026e+00	1.243472e+00	1.239973e+00	1.244272e+00	1.253480e+00	1.263591e+00	1.272154e+00	1.278491e+00	1.282890e+00	1.285863e+00	1.287862e+00	1.289207e+00	1.290043e+00	1.270193e+00	1.271684e+00	1.273249e+00	1.274903e+00	1.276542e+00	1.278007e+00	1.279118e+00	1.279802e+00	1.280047e+00	1.279826e+00	1.278926e+00	1.276948e+00	1.273329e+00	1.267629e+00	1.259635e+00	1.249640e+00	1.240772e+00	1.238115e+00	1.243226e+00	1.252998e+00	1.263403e+00	1.272089e+00	1.278471e+00	1.282884e+00	1.285861e+00	1.287861e+00	1.289207e+00	1.290043e+00	1.259090e+00	1.260577e+00	1.262156e+00	1.263843e+00	1.265532e+00	1.267067e+00	1.268290e+00	1.269170e+00	1.269749e+00	1.270065e+00	1.269957e+00	1.269042e+00	1.266662e+00	1.262178e+00	1.255161e+00	1.245902e+00	1.237802e+00	1.236090e+00	1.242102e+00	1.252486e+00	1.263205e+00	1.272020e+00	1.278449e+00	1.282878e+00	1.285860e+00	1.287861e+00	1.289207e+00	1.290043e+00	1.248165e+00	1.249639e+00	1.251224e+00	1.252937e+00	1.254666e+00	1.256253e+00	1.257550e+00	1.258570e+00	1.259400e+00	1.260152e+00	1.260723e+00	1.260770e+00	1.259570e+00	1.256290e+00	1.250261e+00	1.241780e+00	1.234539e+00	1.233888e+00	1.240895e+00	1.251944e+00	1.262998e+00	1.271950e+00	1.278427e+00	1.282871e+00	1.285858e+00	1.287861e+00	1.289207e+00	1.290043e+00	1.237382e+00	1.238836e+00	1.240427e+00	1.242169e+00	1.243940e+00	1.245575e+00	1.246937e+00	1.248079e+00	1.249126e+00	1.250248e+00	1.251391e+00	1.252274e+00	1.252150e+00	1.250004e+00	1.244931e+00	1.237248e+00	1.230959e+00	1.231499e+00	1.239605e+00	1.251372e+00	1.262782e+00	1.271876e+00	1.278404e+00	1.282864e+00	1.285856e+00	1.287860e+00	1.289207e+00	1.290043e+00	1.226445e+00	1.227878e+00	1.229478e+00	1.231258e+00	1.233080e+00	1.234768e+00	1.236200e+00	1.237469e+00	1.238736e+00	1.240221e+00	1.241901e+00	1.243559e+00	1.244430e+00	1.243329e+00	1.239141e+00	1.232262e+00	1.227033e+00	1.228915e+00	1.238233e+00	1.250773e+00	1.262557e+00	1.271800e+00	1.278380e+00	1.282857e+00	1.285854e+00	1.287859e+00	1.289207e+00	1.290044e+00	1.215411e+00	1.216828e+00	1.218448e+00	1.220286e+00	1.222179e+00	1.223941e+00	1.225468e+00	1.226891e+00	1.228404e+00	1.230251e+00	1.232414e+00	1.234759e+00	1.236501e+00	1.236288e+00	1.232856e+00	1.226764e+00	1.222717e+00	1.226117e+00	1.236778e+00	1.250150e+00	1.262326e+00	1.271722e+00	1.278356e+00	1.282850e+00	1.285851e+00	1.287859e+00	1.289207e+00	1.290044e+00	1.205021e+00	1.206410e+00	1.208053e+00	1.209955e+00	1.211924e+00	1.213751e+00	1.215358e+00	1.216907e+00	1.218612e+00	1.220717e+00	1.223232e+00	1.226125e+00	1.228550e+00	1.228978e+00	1.226087e+00	1.220722e+00	1.217978e+00	1.223086e+00	1.235231e+00	1.249502e+00	1.262090e+00	1.271643e+00	1.278331e+00	1.282842e+00	1.285849e+00	1.287858e+00	1.289206e+00	1.290044e+00	1.195588e+00	1.196907e+00	1.198569e+00	1.200527e+00	1.202550e+00	1.204398e+00	1.206033e+00	1.207635e+00	1.209446e+00	1.211719e+00	1.214523e+00	1.217895e+00	1.220808e+00	1.221550e+00	1.218909e+00	1.214176e+00	1.212847e+00	1.219841e+00	1.233596e+00	1.248826e+00	1.261847e+00	1.271563e+00	1.278306e+00	1.282834e+00	1.285847e+00	1.287858e+00	1.289206e+00	1.290044e+00	1.184786e+00	1.186034e+00	1.187743e+00	1.189787e+00	1.191881e+00	1.193772e+00	1.195481e+00	1.197230e+00	1.199329e+00	1.202035e+00	1.205444e+00	1.209513e+00	1.212858e+00	1.213654e+00	1.211049e+00	1.206983e+00	1.207326e+00	1.216442e+00	1.231908e+00	1.248130e+00	1.261599e+00	1.271482e+00	1.278280e+00	1.282826e+00	1.285844e+00	1.287857e+00	1.289206e+00	1.290044e+00	1.171400e+00	1.172691e+00	1.174526e+00	1.176775e+00	1.179050e+00	1.181143e+00	1.183162e+00	1.185390e+00	1.188191e+00	1.191694e+00	1.195946e+00	1.200653e+00	1.204024e+00	1.204400e+00	1.201622e+00	1.198497e+00	1.201106e+00	1.212840e+00	1.230199e+00	1.247436e+00	1.261348e+00	1.271400e+00	1.278255e+00	1.282818e+00	1.285841e+00	1.287856e+00	1.289206e+00	1.290044e+00	1.166040e+00	1.167381e+00	1.169396e+00	1.171902e+00	1.174401e+00	1.176701e+00	1.179003e+00	1.181555e+00	1.184616e+00	1.188069e+00	1.191964e+00	1.195610e+00	1.196925e+00	1.194971e+00	1.190823e+00	1.188387e+00	1.193753e+00	1.208796e+00	1.228425e+00	1.246752e+00	1.261102e+00	1.271318e+00	1.278229e+00	1.282810e+00	1.285839e+00	1.287855e+00	1.289206e+00	1.290044e+00	1.185192e+00	1.186125e+00	1.188319e+00	1.190783e+00	1.193159e+00	1.195039e+00	1.196780e+00	1.198407e+00	1.199986e+00	1.201318e+00	1.202356e+00	1.201705e+00	1.197381e+00	1.189861e+00	1.181781e+00	1.178323e+00	1.185725e+00	1.204225e+00	1.226491e+00	1.246059e+00	1.260863e+00	1.271239e+00	1.278204e+00	1.282802e+00	1.285836e+00	1.287855e+00	1.289206e+00	1.290044e+00	1.201699e+00	1.202083e+00	1.204642e+00	1.206701e+00	1.208645e+00	1.209666e+00	1.210536e+00	1.210986e+00	1.211090e+00	1.210680e+00	1.209125e+00	1.204486e+00	1.195920e+00	1.185306e+00	1.174788e+00	1.170275e+00	1.178541e+00	1.199636e+00	1.224434e+00	1.245337e+00	1.260627e+00	1.271162e+00	1.278179e+00	1.282794e+00	1.285833e+00	1.287854e+00	1.289205e+00	1.290044e+00	1.113302e+00	1.114617e+00	1.118712e+00	1.120915e+00	1.123211e+00	1.124484e+00	1.126127e+00	1.127799e+00	1.129774e+00	1.132248e+00	1.134013e+00	1.136483e+00	1.142624e+00	1.151148e+00	1.155443e+00	1.159955e+00	1.172274e+00	1.195633e+00	1.222458e+00	1.244610e+00	1.260394e+00	1.271087e+00	1.278154e+00	1.282786e+00	1.285831e+00	1.287853e+00	1.289205e+00	1.290045e+00	8.674323e-01	8.748741e-01	8.787387e-01	8.821353e-01	8.836144e-01	8.859806e-01	8.879067e-01	8.910740e-01	8.955385e-01	9.032644e-01	9.174809e-01	9.462007e-01	9.921000e-01	1.049301e+00	1.101698e+00	1.137147e+00	1.163752e+00	1.191882e+00	1.220672e+00	1.243916e+00	1.260167e+00	1.271015e+00	1.278131e+00	1.282778e+00	1.285828e+00	1.287852e+00	1.289205e+00	1.290045e+00	7.787223e-01	7.837577e-01	7.846494e-01	7.856963e-01	7.861227e-01	7.874310e-01	7.888772e-01	7.913439e-01	7.957391e-01	8.035534e-01	8.193210e-01	8.455008e-01	8.865004e-01	9.494384e-01	1.029842e+00	1.101649e+00	1.150923e+00	1.187618e+00	1.218998e+00	1.243268e+00	1.259952e+00	1.270946e+00	1.278108e+00	1.282770e+00	1.285825e+00	1.287851e+00	1.289205e+00	1.290045e+00	7.768832e-01	7.782722e-01	7.785336e-01	7.794279e-01	7.807382e-01	7.828196e-01	7.856551e-01	7.899489e-01	7.963477e-01	8.061270e-01	8.202801e-01	8.399220e-01	8.690036e-01	9.135917e-01	9.814711e-01	1.065787e+00	1.135674e+00	1.182749e+00	1.217367e+00	1.242670e+00	1.259750e+00	1.270882e+00	1.278087e+00	1.282763e+00	1.285822e+00	1.287850e+00	1.289204e+00	1.290046e+00	7.975531e-01	7.984811e-01	7.996504e-01	8.013200e-01	8.033915e-01	8.060222e-01	8.095165e-01	8.144265e-01	8.212726e-01	8.305949e-01	8.429671e-01	8.587408e-01	8.801081e-01	9.116833e-01	9.629818e-01	1.040718e+00	1.121142e+00	1.177687e+00	1.215783e+00	1.242122e+00	1.259566e+00	1.270822e+00	1.278067e+00	1.282755e+00	1.285819e+00	1.287849e+00	1.289204e+00	1.290046e+00	8.093418e-01	8.105166e-01	8.119234e-01	8.135409e-01	8.154083e-01	8.177698e-01	8.209873e-01	8.255348e-01	8.318514e-01	8.404884e-01	8.519514e-01	8.668973e-01	8.873453e-01	9.158173e-01	9.590402e-01	1.027224e+00	1.109447e+00	1.172934e+00	1.214293e+00	1.241631e+00	1.259401e+00	1.270768e+00	1.278049e+00	1.282749e+00	1.285817e+00	1.287848e+00	1.289204e+00	1.290047e+00	8.172235e-01	8.185067e-01	8.198852e-01	8.213959e-01	8.231428e-01	8.253791e-01	8.284131e-01	8.326822e-01	8.386068e-01	8.468053e-01	8.579073e-01	8.728148e-01	8.932509e-01	9.206639e-01	9.603316e-01	1.021569e+00	1.101238e+00	1.168849e+00	1.212951e+00	1.241202e+00	1.259257e+00	1.270721e+00	1.278032e+00	1.282742e+00	1.285814e+00	1.287848e+00	1.289204e+00	1.290048e+00	8.239777e-01	8.251751e-01	8.264382e-01	8.278195e-01	8.294148e-01	8.314479e-01	8.342003e-01	8.381048e-01	8.435649e-01	8.512350e-01	8.617874e-01	8.764396e-01	8.969621e-01	9.244232e-01	9.631593e-01	1.020463e+00	1.096306e+00	1.165626e+00	1.211804e+00	1.240842e+00	1.259137e+00	1.270680e+00	1.278018e+00	1.282737e+00	1.285812e+00	1.287847e+00	1.289204e+00	1.290049e+00	8.308436e-01	8.320049e-01	8.332463e-01	8.345936e-01	8.361327e-01	8.380788e-01	8.407183e-01	8.444837e-01	8.497654e-01	8.572340e-01	8.675542e-01	8.820308e-01	9.021614e-01	9.290538e-01	9.672007e-01	1.022201e+00	1.094180e+00	1.163352e+00	1.210890e+00	1.240557e+00	1.259042e+00	1.270648e+00	1.278006e+00	1.282732e+00	1.285810e+00	1.287846e+00	1.289204e+00	1.290050e+00	8.366134e-01	8.377861e-01	8.390283e-01	8.403527e-01	8.418461e-01	8.437280e-01	8.462924e-01	8.499681e-01	8.551399e-01	8.624890e-01	8.726717e-01	8.870515e-01	9.069217e-01	9.336370e-01	9.718980e-01	1.025746e+00	1.094282e+00	1.162032e+00	1.210233e+00	1.240350e+00	1.258975e+00	1.270624e+00	1.277997e+00	1.282729e+00	1.285809e+00	1.287846e+00	1.289205e+00	1.290051e+00	8.417923e-01	8.429936e-01	8.442526e-01	8.455782e-01	8.470692e-01	8.489472e-01	8.515232e-01	8.552204e-01	8.604310e-01	8.678376e-01	8.780741e-01	8.924932e-01	9.121731e-01	9.388521e-01	9.774567e-01	1.030631e+00	1.096113e+00	1.161631e+00	1.209850e+00	1.240225e+00	1.258936e+00	1.270610e+00	1.277992e+00	1.282726e+00	1.285808e+00	1.287846e+00	1.289205e+00	1.290053e+00	8.464694e-01	8.476954e-01	8.489728e-01	8.503047e-01	8.518030e-01	8.536830e-01	8.562836e-01	8.600043e-01	8.652561e-01	8.727056e-01	8.829776e-01	8.974503e-01	9.171300e-01	9.442296e-01	9.836266e-01	1.036483e+00	1.099248e+00	1.162069e+00	1.209747e+00	1.240184e+00	1.258927e+00	1.270606e+00	1.277990e+00	1.282725e+00	1.285807e+00	1.287846e+00	1.289206e+00	1.290054e+00	8.509355e-01	8.521893e-01	8.534931e-01	8.548389e-01	8.563538e-01	8.582455e-01	8.608907e-01	8.646475e-01	8.699793e-01	8.775122e-01	8.878852e-01	9.025179e-01	9.223999e-01	9.502256e-01	9.905908e-01	1.043184e+00	1.103400e+00	1.163252e+00	1.209922e+00	1.240230e+00	1.258947e+00	1.270613e+00	1.277992e+00	1.282726e+00	1.285808e+00	1.287847e+00	1.289207e+00	1.290057e+00	8.549516e-01	8.562359e-01	8.575652e-01	8.589238e-01	8.604510e-01	8.623550e-01	8.650458e-01	8.688408e-01	8.742895e-01	8.819222e-01	8.924575e-01	9.073912e-01	9.277506e-01	9.566790e-01	9.982185e-01	1.050565e+00	1.108330e+00	1.165072e+00	1.210363e+00	1.240363e+00	1.258999e+00	1.270632e+00	1.277999e+00	1.282729e+00	1.285809e+00	1.287848e+00	1.289208e+00	1.290059e+00	8.584568e-01	8.597833e-01	8.611467e-01	8.625319e-01	8.640851e-01	8.660322e-01	8.687998e-01	8.726972e-01	8.783438e-01	8.861248e-01	8.969732e-01	9.124253e-01	9.335365e-01	9.638390e-01	1.006593e+00	1.058571e+00	1.113876e+00	1.167428e+00	1.211058e+00	1.240584e+00	1.259082e+00	1.270664e+00	1.278012e+00	1.282734