# vtk DataFile Version 3.0
vtk output
ASCII
DATASET UNSTRUCTURED_GRID
POINTS 1849 double
1.000000e+02	0.000000e+00	0.0	9.917900e+01	1.278772e+01	0.0	9.672949e+01	2.536546e+01	0.0	9.269168e+01	3.752670e+01	0.0	8.713187e+01	4.907176e+01	0.0	8.014136e+01	5.981105e+01	0.0	7.183494e+01	6.956826e+01	0.0	6.234898e+01	7.818315e+01	0.0	5.183926e+01	8.551428e+01	0.0	4.047833e+01	9.144126e+01	0.0	2.845276e+01	9.586679e+01	0.0	1.595999e+01	9.871818e+01	0.0	3.205158e+00	9.994862e+01	0.0	-9.602303e+00	9.953791e+01	0.0	-2.225209e+01	9.749279e+01	0.0	-3.453651e+01	9.384684e+01	0.0	-4.625383e+01	8.865993e+01	0.0	-5.721167e+01	8.201723e+01	0.0	-6.723009e+01	7.402780e+01	0.0	-7.614460e+01	6.482284e+01	0.0	-8.380881e+01	5.455349e+01	0.0	-9.009689e+01	4.338837e+01	0.0	-9.490557e+01	3.151082e+01	0.0	-9.815592e+01	1.911586e+01	0.0	-9.979454e+01	6.407022e+00	0.0	-9.979454e+01	-6.407022e+00	0.0	-9.815592e+01	-1.911586e+01	0.0	-9.490557e+01	-3.151082e+01	0.0	-9.009689e+01	-4.338837e+01	0.0	-8.380881e+01	-5.455349e+01	0.0	-7.614460e+01	-6.482284e+01	0.0	-6.723009e+01	-7.402780e+01	0.0	-5.721167e+01	-8.201723e+01	0.0	-4.625383e+01	-8.865993e+01	0.0	-3.453651e+01	-9.384684e+01	0.0	-2.225209e+01	-9.749279e+01	0.0	-9.602303e+00	-9.953791e+01	0.0	3.205158e+00	-9.994862e+01	0.0	1.595999e+01	-9.871818e+01	0.0	2.845276e+01	-9.586679e+01	0.0	4.047833e+01	-9.144126e+01	0.0	5.183926e+01	-8.551428e+01	0.0	6.234898e+01	-7.818315e+01	0.0	7.183494e+01	-6.956826e+01	0.0	8.014136e+01	-5.981105e+01	0.0	8.713187e+01	-4.907176e+01	0.0	9.269168e+01	-3.752670e+01	0.0	9.672949e+01	-2.536546e+01	0.0	9.917900e+01	-1.278772e+01	0.0	0.000000e+00	0.000000e+00	0.0	3.244181e-03	3.804641e-03	0.0	6.692049e-03	7.661238e-03	0.0	1.108429e-02	1.076594e-02	0.0	1.569086e-02	1.389373e-02	0.0	2.088110e-02	1.643083e-02	0.0	2.628714e-02	1.898690e-02	0.0	3.211328e-02	2.109161e-02	0.0	3.816579e-02	2.319733e-02	0.0	4.453146e-02	2.505203e-02	0.0	5.112115e-02	2.693895e-02	0.0	5.794768e-02	2.882789e-02	0.0	6.495924e-02	3.091030e-02	0.0	7.216584e-02	3.316493e-02	0.0	7.951155e-02	3.575590e-02	0.0	8.707800e-02	3.845071e-02	0.0	9.493673e-02	4.104928e-02	0.0	1.031017e-01	4.347406e-02	0.0	1.116338e-01	4.551771e-02	0.0	1.204823e-01	4.722803e-02	0.0	1.296789e-01	4.843816e-02	0.0	1.391401e-01	4.953470e-02	0.0	1.488992e-01	5.018379e-02	0.0	1.589097e-01	5.084960e-02	0.0	1.691811e-01	5.134136e-02	0.0	1.797035e-01	5.181048e-02	0.0	1.904716e-01	5.231659e-02	0.0	2.014813e-01	5.288467e-02	0.0	2.127315e-01	5.346517e-02	0.0	2.242089e-01	5.420867e-02	0.0	2.359153e-01	5.500653e-02	0.0	2.478464e-01	5.583506e-02	0.0	2.599937e-01	5.672604e-02	0.0	2.723535e-01	5.763261e-02	0.0	2.849222e-01	5.849853e-02	0.0	2.976892e-01	5.935472e-02	0.0	3.106462e-01	6.018618e-02	0.0	3.237914e-01	6.085743e-02	0.0	3.371047e-01	6.153726e-02	0.0	3.505830e-01	6.202826e-02	0.0	3.642109e-01	6.242544e-02	0.0	3.779735e-01	6.276513e-02	0.0	3.918620e-01	6.279770e-02	0.0	4.058586e-01	6.283053e-02	0.0	4.199458e-01	6.256832e-02	0.0	4.341118e-01	6.216243e-02	0.0	4.483424e-01	6.170516e-02	0.0	4.626171e-01	6.103618e-02	0.0	4.769289e-01	6.036545e-02	0.0	4.912676e-01	5.979983e-02	0.0	5.056156e-01	5.927760e-02	0.0	5.199583e-01	5.888550e-02	0.0	5.342858e-01	5.893316e-02	0.0	5.485760e-01	5.898069e-02	0.0	5.627966e-01	5.960575e-02	0.0	5.769449e-01	6.042288e-02	0.0	5.910064e-01	6.132310e-02	0.0	6.049560e-01	6.247006e-02	0.0	6.187978e-01	6.360817e-02	0.0	6.325304e-01	6.458371e-02	0.0	6.461332e-01	6.550034e-02	0.0	6.595978e-01	6.623031e-02	0.0	6.729272e-01	6.640677e-02	0.0	6.860885e-01	6.658100e-02	0.0	6.990565e-01	6.608568e-02	0.0	7.118310e-01	6.535063e-02	0.0	7.243892e-01	6.442200e-02	0.0	7.366737e-01	6.278520e-02	0.0	7.487468e-01	6.117655e-02	0.0	7.604742e-01	5.887119e-02	0.0	7.719356e-01	5.635818e-02	0.0	7.830949e-01	5.360650e-02	0.0	7.938683e-01	5.031457e-02	0.0	8.044114e-01	4.709301e-02	0.0	8.145794e-01	4.351329e-02	0.0	8.245100e-01	4.000251e-02	0.0	8.342222e-01	3.662288e-02	0.0	8.437069e-01	3.335287e-02	0.0	8.529990e-01	3.031054e-02	0.0	8.621692e-01	2.772323e-02	0.0	8.710966e-01	2.520443e-02	0.0	8.798841e-01	2.315955e-02	0.0	8.884463e-01	2.124554e-02	0.0	8.967850e-01	1.948125e-02	0.0	9.049188e-01	1.794715e-02	0.0	9.128120e-01	1.645844e-02	0.0	9.204791e-01	1.507931e-02	0.0	9.279133e-01	1.375600e-02	0.0	9.351134e-01	1.246314e-02	0.0	9.420815e-01	1.119215e-02	0.0	9.488248e-01	9.961688e-03	0.0	9.553419e-01	8.741470e-03	0.0	9.616427e-01	7.561751e-03	0.0	9.677276e-01	6.400905e-03	0.0	9.736045e-01	5.275958e-03	0.0	9.792753e-01	4.172401e-03	0.0	9.847468e-01	3.100505e-03	0.0	9.900227e-01	2.053892e-03	0.0	9.951070e-01	1.026973e-03	0.0	1.000000e+00	0.000000e+00	0.0	9.950050e-01	2.227524e-04	0.0	9.898227e-01	4.249180e-04	0.0	9.844474e-01	5.742171e-04	0.0	9.788751e-01	6.765507e-04	0.0	9.731015e-01	7.532562e-04	0.0	9.671218e-01	7.691655e-04	0.0	9.609321e-01	7.624239e-04	0.0	9.545280e-01	6.892667e-04	0.0	9.479051e-01	6.009876e-04	0.0	9.410608e-01	4.175957e-04	0.0	9.339894e-01	2.281177e-04	0.0	9.266905e-01	-6.607299e-05	0.0	9.191581e-01	-3.944868e-04	0.0	9.113922e-01	-8.042382e-04	0.0	9.033932e-01	-1.358066e-03	0.0	8.951514e-01	-1.928708e-03	0.0	8.866904e-01	-2.806426e-03	0.0	8.779876e-01	-3.759910e-03	0.0	8.690632e-01	-4.929234e-03	0.0	8.599337e-01	-6.442767e-03	0.0	8.505570e-01	-7.997298e-03	0.0	8.410395e-01	-1.013790e-02	0.0	8.312795e-01	-1.234124e-02	0.0	8.213122e-01	-1.475063e-02	0.0	8.111218e-01	-1.729144e-02	0.0	8.006780e-01	-1.982854e-02	0.0	7.899740e-01	-2.232055e-02	0.0	7.790325e-01	-2.484443e-02	0.0	7.677669e-01	-2.696908e-02	0.0	7.562754e-01	-2.913636e-02	0.0	7.445187e-01	-3.108402e-02	0.0	7.325192e-01	-3.290517e-02	0.0	7.203071e-01	-3.473332e-02	0.0	7.078649e-01	-3.639074e-02	0.0	6.952288e-01	-3.807399e-02	0.0	6.824038e-01	-3.975164e-02	0.0	6.694001e-01	-4.142852e-02	0.0	6.562311e-01	-4.312711e-02	0.0	6.429147e-01	-4.490176e-02	0.0	6.294551e-01	-4.669549e-02	0.0	6.158692e-01	-4.854424e-02	0.0	6.021703e-01	-5.045274e-02	0.0	5.883653e-01	-5.237603e-02	0.0	5.744805e-01	-5.440359e-02	0.0	5.605176e-01	-5.644952e-02	0.0	5.464930e-01	-5.852841e-02	0.0	5.324225e-01	-6.064924e-02	0.0	5.183156e-01	-6.277559e-02	0.0	5.041493e-01	-6.463851e-02	0.0	4.899708e-01	-6.646765e-02	0.0	4.757700e-01	-6.800267e-02	0.0	4.615419e-01	-6.904632e-02	0.0	4.473507e-01	-7.008727e-02	0.0	4.331790e-01	-7.001569e-02	0.0	4.190688e-01	-6.979078e-02	0.0	4.050668e-01	-6.909559e-02	0.0	3.912034e-01	-6.765238e-02	0.0	3.774465e-01	-6.622026e-02	0.0	3.638823e-01	-6.423056e-02	0.0	3.504600e-01	-6.217618e-02	0.0	3.371848e-01	-6.011632e-02	0.0	3.240723e-01	-5.802586e-02	0.0	3.111244e-01	-5.596166e-02	0.0	2.983102e-01	-5.420990e-02	0.0	2.856693e-01	-5.256288e-02	0.0	2.732117e-01	-5.103508e-02	0.0	2.609203e-01	-4.985120e-02	0.0	2.488392e-01	-4.868758e-02	0.0	2.369550e-01	-4.780160e-02	0.0	2.252845e-01	-4.705813e-02	0.0	2.138417e-01	-4.636662e-02	0.0	2.026186e-01	-4.599330e-02	0.0	1.916344e-01	-4.562793e-02	0.0	1.808904e-01	-4.534864e-02	0.0	1.703901e-01	-4.513972e-02	0.0	1.601372e-01	-4.493573e-02	0.0	1.501385e-01	-4.456369e-02	0.0	1.403899e-01	-4.419883e-02	0.0	1.309069e-01	-4.361288e-02	0.0	1.216928e-01	-4.275365e-02	0.0	1.127277e-01	-4.191765e-02	0.0	1.040970e-01	-4.046276e-02	0.0	9.571829e-02	-3.898918e-02	0.0	8.762841e-02	-3.733586e-02	0.0	7.984165e-02	-3.542358e-02	0.0	7.228873e-02	-3.356872e-02	0.0	6.505205e-02	-3.145369e-02	0.0	5.804169e-02	-2.940002e-02	0.0	5.128156e-02	-2.731736e-02	0.0	4.475092e-02	-2.526097e-02	0.0	3.847530e-02	-2.314503e-02	0.0	3.243167e-02	-2.102553e-02	0.0	2.671676e-02	-1.865471e-02	0.0	2.125963e-02	-1.621842e-02	0.0	1.625691e-02	-1.333505e-02	0.0	1.159322e-02	-1.030052e-02	0.0	7.276406e-03	-7.094101e-03	0.0	3.397724e-03	-3.654220e-03	0.0	6.174568e-01	-8.503224e-02	0.0	6.024591e-01	-7.380004e-02	0.0	5.995160e-01	-9.306934e-02	0.0	8.742019e+01	1.802832e+01	0.0	7.547265e+01	-1.260930e+01	0.0	7.559410e+01	-2.486651e+01	0.0	8.662340e+01	-1.816758e+01	0.0	8.612762e+01	-4.976076e+00	0.0	2.807674e+01	2.489435e+01	0.0	3.825290e+01	2.771267e+01	0.0	3.140937e+01	3.537202e+01	0.0	8.215160e+01	3.551325e+01	0.0	7.315113e+01	3.362849e+01	0.0	7.674904e+01	2.443541e+01	0.0	6.867092e+01	-3.577183e+01	0.0	7.539505e+01	-4.357797e+01	0.0	8.112058e+01	-3.640250e+01	0.0	8.663754e+01	-2.840041e+01	0.0	4.869404e+01	3.068929e+01	0.0	5.766627e+01	3.256935e+01	0.0	5.356709e+01	4.082825e+01	0.0	7.210539e+01	-5.279124e+01	0.0	6.269506e+01	-5.046989e+01	0.0	6.259663e+01	-5.827935e+01	0.0	6.892009e+01	5.997492e+01	0.0	7.286173e+01	5.049414e+01	0.0	5.983066e+01	6.559612e+01	0.0	4.358633e+01	-6.345615e+01	0.0	4.456903e+01	-7.482936e+01	0.0	5.333469e+01	-7.214967e+01	0.0	6.746086e+01	-4.470692e+01	0.0	5.005848e+01	7.381796e+01	0.0	2.810888e+01	5.238674e+01	0.0	2.095083e+01	6.024795e+01	0.0	1.769496e+01	5.076326e+01	0.0	5.321037e+01	-5.377251e+01	0.0	5.508480e+01	-6.301515e+01	0.0	3.047213e+01	8.236717e+01	0.0	3.752106e+01	7.083060e+01	0.0	4.207385e+01	8.079425e+01	0.0	3.664624e+01	-7.245981e+01	0.0	2.854288e+01	-7.727711e+01	0.0	3.850050e+01	-8.132850e+01	0.0	-3.286069e+00	3.465182e+01	0.0	-1.901714e+00	4.448878e+01	0.0	-9.906281e+00	4.037318e+01	0.0	8.116815e-01	-2.539688e-02	0.0	8.213454e-01	-2.363396e-02	0.0	4.724885e-01	-7.989712e-02	0.0	4.858393e-01	-7.780045e-02	0.0	9.029326e-01	3.212026e-02	0.0	9.100738e-01	2.896639e-02	0.0	9.099291e-01	3.617135e-02	0.0	8.779629e-01	4.797242e-02	0.0	8.826745e-01	3.743528e-02	0.0	8.904132e-01	4.518648e-02	0.0	8.936594e-01	3.391955e-02	0.0	9.324659e-01	1.663823e-02	0.0	9.270551e-01	1.976896e-02	0.0	9.095231e-01	2.259492e-02	0.0	1.461102e-01	-5.076074e-02	0.0	1.391050e-01	-5.450885e-02	0.0	1.466951e-01	-5.946643e-02	0.0	8.517226e-01	-2.215797e-02	0.0	8.601906e-01	-1.660784e-02	0.0	8.535071e-01	-1.389699e-02	0.0	1.271157e-01	6.540101e-02	0.0	1.260306e-01	5.536826e-02	0.0	1.346833e-01	6.076593e-02	0.0	1.184150e-01	6.088924e-02	0.0	1.109495e-01	5.524501e-02	0.0	1.175002e-01	5.299823e-02	0.0	8.704264e-02	7.115436e-02	0.0	9.200557e-02	5.801659e-02	0.0	9.946891e-02	6.828965e-02	0.0	3.318690e-01	9.951367e-02	0.0	3.283198e-01	1.237366e-01	0.0	3.150688e-01	1.02998
[...]
POINT_DATA 1849

SCALARS Density double 1
LOOKUP_TABLE default
1.291813e+00	1.291850e+00	1.292086e+00	1.292160e+00	1.292076e+00	1.292008e+00	1.291955e+00	1.291886e+00	1.291810e+00	1.291739e+00	1.291677e+00	1.291643e+00	1.291651e+00	1.291708e+00	1.291807e+00	1.291911e+00	1.292003e+00	1.292075e+00	1.292135e+00	1.292177e+00	1.292208e+00	1.292234e+00	1.292251e+00	1.292267e+00	1.292279e+00	1.292292e+00	1.292305e+00	1.292320e+00	1.292338e+00	1.292362e+00	1.292393e+00	1.292434e+00	1.292490e+00	1.292552e+00	1.292630e+00	1.292724e+00	1.292825e+00	1.292896e+00	1.292919e+00	1.292891e+00	1.292828e+00	1.292756e+00	1.292673e+00	1.292589e+00	1.292512e+00	1.292450e+00	1.292437e+00	1.292357e+00	1.292083e+00	1.557139e+00	1.152901e+00	1.178840e+00	1.101174e+00	1.055281e+00	1.016155e+00	1.007839e+00	1.011930e+00	1.050135e+00	1.095541e+00	1.137851e+00	1.168457e+00	1.184381e+00	1.182291e+00	1.154477e+00	1.089621e+00	1.020107e+00	9.400605e-01	8.632657e-01	7.929365e-01	7.487524e-01	7.137827e-01	6.907668e-01	6.883006e-01	6.848864e-01	6.931641e-01	7.066706e-01	7.187787e-01	7.381156e-01	7.612219e-01	7.769123e-01	7.888996e-01	7.979722e-01	8.003256e-01	8.030342e-01	8.084681e-01	8.081006e-01	8.106215e-01	8.137633e-01	8.124638e-01	8.135728e-01	7.975797e-01	7.991427e-01	8.720536e-01	1.049456e+00	1.148142e+00	1.159464e+00	1.165760e+00	1.189614e+00	1.208527e+00	1.222006e+00	1.239383e+00	1.242293e+00	1.243664e+00	1.241217e+00	1.217362e+00	1.199566e+00	1.174729e+00	1.135030e+00	1.099265e+00	1.061142e+00	1.006358e+00	9.620614e-01	9.151505e-01	8.607219e-01	8.356074e-01	7.852951e-01	7.445434e-01	7.062796e-01	6.523746e-01	6.160470e-01	5.892063e-01	6.852578e-01	1.016879e+00	1.203224e+00	1.218217e+00	1.236463e+00	1.253345e+00	1.271054e+00	1.276221e+00	1.281549e+00	1.286706e+00	1.283302e+00	1.286859e+00	1.285619e+00	1.284059e+00	1.284438e+00	1.283730e+00	1.284255e+00	1.286528e+00	1.288185e+00	1.290925e+00	1.294372e+00	1.297873e+00	1.302128e+00	1.306316e+00	1.311103e+00	1.323595e+00	1.311790e+00	1.335110e+00	1.454436e+00	1.415399e+00	1.416804e+00	1.417784e+00	1.420568e+00	1.421242e+00	1.422426e+00	1.424625e+00	1.425556e+00	1.427191e+00	1.429293e+00	1.429879e+00	1.434281e+00	1.433982e+00	1.439410e+00	1.441646e+00	1.439782e+00	1.444750e+00	1.437439e+00	1.439364e+00	1.433218e+00	1.415790e+00	1.405545e+00	1.383869e+00	1.363207e+00	1.346407e+00	1.319271e+00	1.303117e+00	1.295623e+00	1.283029e+00	1.284259e+00	1.280019e+00	1.279672e+00	1.283659e+00	1.283144e+00	1.283880e+00	1.284923e+00	1.283146e+00	1.280492e+00	1.277585e+00	1.271988e+00	1.267467e+00	1.259973e+00	1.249215e+00	1.238936e+00	1.222675e+00	1.195149e+00	1.172548e+00	1.147364e+00	1.095358e+00	1.014480e+00	9.277105e-01	9.330760e-01	9.766707e-01	1.002011e+00	1.061632e+00	1.105656e+00	1.148150e+00	1.200486e+00	1.232629e+00	1.262011e+00	1.293529e+00	1.312974e+00	1.323523e+00	1.339232e+00	1.344655e+00	1.349241e+00	1.354823e+00	1.351135e+00	1.355910e+00	1.353346e+00	1.343534e+00	1.338700e+00	1.328071e+00	1.311008e+00	1.299948e+00	1.285656e+00	1.266330e+00	1.263989e+00	1.246298e+00	1.247837e+00	1.271846e+00	1.279962e+00	1.306703e+00	1.325247e+00	1.347097e+00	1.375224e+00	1.393313e+00	1.411221e+00	1.427896e+00	1.439702e+00	1.457789e+00	1.477571e+00	1.504527e+00	1.549486e+00	1.592045e+00	1.602475e+00	1.709456e+00	1.272810e+00	1.267417e+00	1.263902e+00	1.292016e+00	1.292230e+00	1.292389e+00	1.292269e+00	1.292005e+00	1.291639e+00	1.291833e+00	1.291619e+00	1.292099e+00	1.292089e+00	1.292069e+00	1.292477e+00	1.292467e+00	1.292421e+00	1.292378e+00	1.291941e+00	1.291999e+00	1.291910e+00	1.292521e+00	1.292568e+00	1.292603e+00	1.291957e+00	1.291999e+00	1.291892e+00	1.292784e+00	1.292788e+00	1.292714e+00	1.292508e+00	1.291806e+00	1.291541e+00	1.291463e+00	1.291321e+00	1.292657e+00	1.292676e+00	1.291658e+00	1.291698e+00	1.291741e+00	1.292858e+00	1.292928e+00	1.292846e+00	1.290600e+00	1.290951e+00	1.291011e+00	1.364525e+00	1.381026e+00	1.007098e+00	1.090025e+00	1.292913e+00	1.292478e+00	1.297220e+00	1.289723e+00	1.288910e+00	1.295276e+00	1.291817e+00	1.287441e+00	1.288859e+00	1.287814e+00	1.285511e+00	1.283383e+00	1.295236e+00	1.418481e+00	1.428257e+00	1.428248e+00	8.477100e-01	8.052923e-01	7.832672e-01	8.847548e-01	9.181805e-01	8.501683e-01	1.104399e+00	1.074387e+00	1.036683e+00	8.501797e-01	8.649478e-01	8.488186e-01	8.027147e-01	8.468210e-01	8.408831e-01	1.222192e+00	1.213345e+00	1.167759e+00	8.145663e-01	8.229651e-01	8.089810e-01	1.232458e+00	1.227535e+00	1.215812e+00	8.238652e-01	8.271570e-01	8.145107e-01	8.180035e-01	8.386427e-01	8.368807e-01	8.262123e-01	8.247465e-01	8.218660e-01	8.108122e-01	8.067567e-01	7.893232e-01	8.350381e-01	8.315262e-01	1.021378e+00	9.682083e-01	9.855480e-01	1.149764e+00	1.173054e+00	1.145164e+00	1.423428e+00	1.420503e+00	1.421939e+00	1.425739e+00	1.427702e+00	1.425197e+00	1.415716e+00	1.413726e+00	1.417147e+00	1.343372e+00	1.348896e+00	1.343703e+00	1.332537e+00	1.337697e+00	1.339583e+00	1.341930e+00	1.346478e+00	1.293445e+00	1.296512e+00	1.290211e+00	1.300088e+00	1.296305e+00	1.301029e+00	1.287350e+00	1.287346e+00	1.030377e+00	9.436557e-01	1.077578e+00	1.072684e+00	1.011946e+00	1.403306e+00	1.412861e+00	1.416670e+00	1.118427e+00	9.544133e-01	1.067550e+00	1.311132e+00	1.313136e+00	1.324363e+00	1.282217e+00	1.284847e+00	1.308668e+00	1.313812e+00	1.324599e+00	1.323529e+00	1.315632e+00	1.315613e+00	1.280461e+00	1.333643e+00	1.337289e+00	1.331449e+00	1.274494e+00	1.323430e+00	1.333269e+00	1.331799e+00	1.307863e+00	1.309982e+00	1.329504e+00	1.282766e+00	1.282638e+00	1.275662e+00	1.280420e+00	1.284670e+00	1.285275e+00	1.290785e+00	1.291125e+00	1.290761e+00	1.270471e+00	1.287659e+00	1.271110e+00	1.250501e+00	1.239439e+00	1.224037e+00	1.291623e+00	1.291555e+00	1.191198e+00	1.214422e+00	1.222423e+00	1.278730e+00	1.174752e+00	6.330340e-01	1.235240e+00	1.265925e+00	1.279349e+00	6.425635e-01	6.349374e-01	7.703663e-01	7.893548e-01	9.586474e-01	1.290162e+00	1.290068e+00	1.139399e+00	1.163943e+00	1.172444e+00	7.037668e-01	6.982660e-01	7.029725e-01	1.220154e+00	1.246061e+00	1.249597e+00	1.212502e+00	1.223699e+00	1.223356e+00	1.162730e+00	1.154724e+00	1.116172e+00	9.775946e-01	9.931566e-01	9.492520e-01	1.190994e+00	1.199381e+00	1.173545e+00	9.323761e-01	1.228011e+00	8.828071e-01	1.230999e+00	1.237679e+00	1.213675e+00	7.543272e-01	1.212488e+00	1.206576e+00	1.221443e+00	1.216945e+00	1.228782e+00	1.261491e+00	1.275025e+00	1.277700e+00	1.130225e+00	1.180309e+00	1.060109e+00	9.145970e-01	9.800913e-01	1.075832e+00	1.170337e+00	1.291788e+00	1.291685e+00	1.181360e+00	1.171348e+00	1.161556e+00	1.053929e+00	1.080853e+00	1.131061e+00	1.170538e+00	7.423036e-01	7.877176e-01	7.595750e-01	7.943070e-01	8.012019e-01	7.331301e-01	7.233817e-01	7.416246e-01	7.594223e-01	7.299200e-01	1.291679e+00	7.238443e-01	7.120232e-01	1.287436e+00	1.288577e+00	1.291858e+00	1.123075e+00	1.154902e+00	1.166146e+00	1.183000e+00	1.103145e+00	1.291978e+00	1.187101e+00	1.189490e+00	1.186539e+00	1.187771e+00	1.186196e+00	1.187925e+00	1.292120e+00	1.291019e+00	1.291471e+00	1.290843e+00	1.291855e+00	1.291137e+00	1.292287e+00	1.292553e+00	1.292612e+00	1.292150e+00	1.292122e+00	1.292094e+00	1.287488e+00	1.290635e+00	1.288801e+00	1.292253e+00	1.292218e+00	1.292247e+00	1.292161e+00	1.292188e+00	1.292289e+00	1.292310e+00	1.292325e+00	1.292340e+00	1.292433e+00	1.292427e+00	1.292394e+00	1.292392e+00	1.292353e+00	1.292515e+00	1.292439e+00	1.292514e+00	1.292242e+00	1.292141e+00	1.292105e+00	1.292539e+00	1.295564e+00	1.293979e+00	1.294109e+00	1.292520e+00	1.297797e+00	1.295614e+00	1.297227e+00	1.296394e+00	1.300042e+00	1.292629e+00	1.292578e+00	1.293451e+00	1.293394e+00	1.293677e+00	1.292852e+00	1.292696e+00	1.292763e+00	1.304465e+00	1.302176e+00	1.300192e+00	1.304907e+00	1.312035e+00	1.308619e+00	1.567015e+00	1.593918e+00	1.542910e+00	1.321317e+00	1.334959e+00	1.323062e+00	1.293047e+00	1.292969e+00	1.293011e+00	1.337039e+00	1.351346e+00	1.365322e+00	1.582986e+00	1.559125e+00	1.294498e+00	1.294322e+00	1.295485e+00	1.323129e+00	1.339604e+00	1.319300e+00	1.314587e+00	1.330274e+00	1.316493e+00	1.292904e+00	1.292914e+00	1.292831e+00	1.359539e+00	1.378393e+00	1.356209e+00	1.438900e+00	1.453919e+00	1.409224e+00	1.397162e+00	1.395740e+00	1.375779e+00	1.387080e+00	1.383788e+00	1.354712e+00	1.317871e+00	1.314913e+00	1.304906e+00	1.386927e+00	1.370472e+00	1.375258e+00	1.421997e+00	1.425614e+00	1.325193e+00	1.311223e+00	1.329386e+00	1.418019e+00	1.407729e+00	1.407178e+00	1.433916e+00	1.435379e+00	1.437451e+00	1.174947e+00	1.189669e+00	1.434140e+00	1.429847e+00	1.437903e+00	1.431653e+00	1.433026e+00	1.436135e+00	1.300500e+00	1.295471e+00	1.293735e+00	1.431231e+00	1.300547e+00	1.296440e+00	1.287192e+00	1.285638e+00	1.288893e+00	1.291833e+00	1.325679e+00	1.305416e+00	1.295154e+00	1.286256e+00	1.303326e+00	1.312899e+00	1.310334e+00	1.276362e+00	1.280093e+00	1.332805e+00	1.317938e+00	1.325443e+00	1.336842e+00	1.334220e+00	1.330619e+00	1.270919e+00	1.284590e+00	1.274574e+00	1.325847e+00	1.321947e+00	1.335073e+00	1.334129e+00	1.345846e+00	1.304581e+00	1.283787e+00	1.299356e+00	1.303170e+00	1.328150e+00	1.345223e+00	1.332559e+00	1.390898e+00	1.375389e+00	1.398235e+00	1.362585e+00	1.314669e+00	1.317049e+00	1.300089e+00	1.314979e+00	1.389975e+00	1.298730e+00	1.284965e+00	1.293217e+00	1.293292e+00	1.156139e+00	1.193634e+00	1.170007e+00	1.415559e+00	1.417689e+00	1.416627e+00	1.228134e+00	1.212798e+00	1.163944e+00	1.292890e+00	1.292948e+00	1.130131e+00	1.147200e+00	1.288251e+00	1.283864e+00	9.745756e-01	1.021047e+00	9.497763e-01	1.273566e+00	1.173173e+00	1.154357e+00	1.193548e+00	1.219435e+00	1.234679e+00	1.071340e+00	1.033134e+00	1.274600e+00	1.255877e+00	1.292271e+00	1.280705e+00	1.291122e+00	7.193707e-01	7.124834e-01	7.308925e-01	1.292966e+00	1.292743e+00	1.292751e+00	1.409437e+00	1.400930e+00	1.409103e+00	1.292751e+00	1.292892e+00	1.292974e+00	1.292090e+00	1.292755e+00	1.291926e+00	1.291879e+00	1.292006e+00	1.292569e+00	1.292068e+00	1.292109e+00	1.292266e+00	1.293172e+00	1.293418e+00	1.292894e+00	1.293935e+00	1.293111e+00	1.293063e+00	1.291783e+00	1.291558e+00	1.290562e+00	1.291954e+00	1.292107e+00	1.291345e+00	1.291257e+00	1.292256e+00	1.291916e+00	1.290162e+00	1.291242e+00	1.287632e+00	1.289238e+00	1.288909e+00	1.292546e+00	1.292831e+00	1.292599e+00	1.292725e+00	1.292601e+00	1.292681e+00	1.292268e+00	1.292307e+00	1.292312e+00	1.292225e+00	1.292210e+00	1.292178e+00	1.292140e+00	1.292078e+00	1.291594e+00	1.291606e+00	1.291527e+00	1.293027e+00	1.292046e+00	1.291992e+00	1.291910e+00	1.291645e+00	1.291761e+00	1.291683e+00	1.291831e+00	1.291977e+00	1.292014e+00	1.291970e+00	1.292350e+00	1.292455e+00	1.293041e+00	1.292913e+00	1.293153e+00	1.292962e+00	1.292390e+00	1.292372e+00	1.291945e+00	1.291768e+00	1.291889e+00	1.292484e+00	1.293402e+00	1.184250e+00	1.170161e+00	1.182249e+00	1.291795e+00	1.293347e+00	1.293898e+00	1.293171e+00	1.291888e+00	1.291718e+00	1.292026e+00	1.291844e+00	1.292360e+00	1.292343e+00	1.292501e+00	1.291337e+00	1.293151e+00	1.293054e+00	1.293303e+00	1.294857e+00	1.294173e+00	1.291894e+00	1.291618e+00	1.295034e+00	1.293396e+00	1.294793e+00	1.291726e+00	1.293862e+00	1.293075e+00	1.293110e+00	1.296260e+00	1.294497e+00	1.290184e+00	1.073320e+00	1.041306e+00	9.765633e-01	1.292198e+00	1.292292e+00	1.292475e+00	1.291630e+00	1.291542e+00	1.291530e+00	1.292201e+00	1.292288e+00	1.292433e+00	1.292482e+00	1.292575e+00	1.292341e+00	1.292038e+00	1.293080e+00	1.292964e+00	1.293032e+00	1.291568e+00	1.291627e+00	1.292871e+00	1.292732e+00	1.292819e+00	1.292102e+00	1.292026e+00	1.292048e+00	1.292501e+00	1.292555e+00	1.292635e+00	1.292674e+00	1.292754e+00	1.292275e+00	1.292610e+00	1.291905e+00	1.292631e+00	1.292454e+00	1.194328e+00	1.146210e+00	1.137737e+00	1.291300e+00	1.291448e+00	1.292165e+00	1.292604e+00	1.292826e+00	1.291124e+00	1.291957e+00	1.291901e+00	1.291868e+00	1.289253e+00	1.291753e+00	1.292489e+00	1.291996e+00	1.292051e+00	1.291079e+00	1.293223e+00	1.292977e+00	1.291831e+00	1.291943e+00	1.292007e+00	1.292890e+00	1.292740e+00	1.292865e+00	1.292997e+00	1.291786e+00	1.291442e+00	1.291393e+00	1.292017e+00	1.292450e+00	1.291965e+00	1.291379e+00	1.291465e+00	1.292596e+00	1.291922e+00	1.292657e+00	1.291544e+00	1.293570e+00	1.292912e+00	1.419857e+00	1.421549e+00	1.629825e+00	1.293922e+00	1.289934e+00	1.291246e+00	1.291604e+00	1.291079e+00	1.291904e+00	1.282582e+00	1.288514e+00	1.296225e+00	1.296721e+00	1.316680e+00	1.318951e+00	1.329331e+00	1.297513e+00	1.286130e+00	1.317165e+00	1.287691e+00	1.291916e+00	1.292519e+00	1.293198e+00	1.291059e+00	1.504021e+00	1.474005e+00	1.480644e+00	1.296362e+00	1.295109e+00	1.298619e+00	1.291268e+00	1.290932e+00	1.291374e+00	1.156359e+00	1.119677e+00	1.290074e+00	1.295187e+00	1.289623e+00	1.291754e+00	1.290034e+00	1.293004e+00	1.291960e+00	1.296672e+00	1.291348e+00	1.293182e+00	1.292569e+00	1.286012e+00	6.955074e-01	1.297010e+00	1.298598e+00	1.301285e+00	1.297876e+00	1.285877e+00	1.290960e+00	1.287146e+00	1.287482e+00	1.292432e+00	1.294352e+00	1.182256e+00	1.204359e+00	1.249528e+00	1.295297e+00	1.296563e+00	1.300093e+00	1.508698e+00	1.485616e+00	1.303489e+00	1.289363e+00	1.291156e+00	1.298825e+00	1.282790e+00	1.297906e+00	1.300751e+00	1.261347e+00	1.224732e+00	1.282948e+00	1.298923e+00	1.301841e+00	1.306549e+00	1.303842e+00	1.358357e+00	1.345186e+00	1.365907e+00	1.273840e+00	1.301554e+00	1.289608e+00	1.261722e+00	1.261625e+00	1.295001e+00	7.081895e-01	6.719015e-01	7.451156e-01	1.263624e+00	1.179497e+00	7.097737e-01	6.979515e-01	1.306398e+00	1.302561e+00	1.289770e+00	1.291682e+00	1.292808e+00	1.306231e+00	1.302804e+00	1.295537e+00	1.413033e+00	1.443266e+00	1.428653e+00	1.306079e+00	1.309847e+00	1.307740e+00	1.290772e+00	1.288479e+00	1.293514e+00	1.296224e+00	1.309631e+00	1.304805e+00	1.288240e+00	1.208074e+00	1.309842e+00	1.310760e+00	1.308848e+00	1.382723e+00	1.411535e+00	1.456843e+00	1.296124e+00	1.167762e+00	1.196726e+00	1.210935e+00	1.302831e+00	1.092040e+00	1.155099e+00	1.291293e+00	1.266240e+00	1.310219e+00	1.306467e+00	1.091751e+00	1.120886e+00	1.118900e+00	1.290683e+00	1.298275e+00	1.285306e+00	1.309486e+00	1.250328e+00	1.315306e+00	1.506886e+00	1.290951e+00	1.277572e+00	1.292267e+00	1.307720e+00	1.307033e+00	1.314638e+00	1.314704e+00	1.316519e+00	1.321420e+00	1.326431e+00	1.301980e+00	1.291216e+00	1.303699e+00	1.289398e+00	1.308831e+00	1.068725e+00	1.059170e+00	1.176078e+00	1.155876e+00	1.135919e+00	1.295451e+00	1.306815e+00	1.304368e+00	1.327514e+00	1.337225e+00	1.323588e+00	7.526933e-01	8.255198e-01	1.313630e+00	1.312705e+00	1.304982e+00	1.349082e+00	1.309687e+00	1.257266e+00	1.306585e+00	1.257656e+00	1.176855e+00	1.295186e+00	1.267590e+00	1.302586e+00	1.298136e+00	1.316793e+00	1.312393e+00	1.321377e+00	1.300880e+00	1.303196e+00	1.332651e+00	1.274561e+00	1.335831e+00	1.314375e+00	1.331267e+00	1.320034e+00	1.294788e+00	1.244835e+00	1.322229e+00	1.428113e+00	1.324101e+00	1.237674e+00	1.231318e+00	1.156844e+00	1.115587e+00	1.058450e+00	9.349807e-01	1.295032e+00	1.218362e+00	1.291593e+00	1.247184e+00	1.284439e+00	1.324667e+00	1.354563e+00	1.376751e+00	1.376119e+00	1.340322e+00	1.246837e+00	1.221446e+00	1.185472e+00	1.178218e+00	1.047828e+00	1.285793e+00	1.331853e+00	1.297908e+00	1.336829e+00	1.360805e+00	1.376571e+00	1.346805e+00	1.180840e+00	1.308005e+00	1.303769e+00	1.287148e+00	1.285313e+00	1.242582e+00	1.199274e+00	1.033436e+00	1.149521e+00	1.115288e+00	1.310512e+00	1.327031e+00	1.305501e+00	1.316039e+00	1.332624e+00	1.353304e+00	1.351405e+00	1.259909e+00	1.283418e+00	1.348892e+00	1.344571e+00	1.351806e+00	1.359224e+00	1.347403e+00	1.336188e+00	1.335349e+00	1.301002e+00	1.317157e+00	1.172756e+00	9.056787e-01	9.837320e-01	9.304415e-01	8.062093e-01	8.889226e-01	1.311391e+00	1.355444e+00	1.354905e+00	1.337194e+00	1.327876e+00	1.153402e+00	1.397502e+00	1.399891e+00	1.404825e+00	1.383536e+00	1.390258e+00	1.414200e+00	1.346983e+00	1.258635e+00	1.133573e+00	1.187040e+00	1.190386e+00	1.171679e+00	1.258063e+00	1.293779e+00	8.342105e-01	8.344748e-01	8.204155e-01	1.150888e+00	9.806545e-01	1.347580e+00	1.348847e+00	1.399516e+00	1.428565e+00	1.403327e+00	1.196964e+00	1.333006e+00	1.342189e+00	1.409328e+00	1.422550e+00	1.408620e+00	1.247688e+00	1.275705e+00	1.263566e+00	1.280069e+00	1.286258e+00	1.207257e+00	1.260292e+00	1.296008e+00	1.302094e+00	1.530210e+00	1.532875e+00	1.372974e+00	1.329684e+00	1.321544e+00	1.327826e+00	1.368155e+00	1.361244e+00	1.096001e+00	9.376478e-01	8.877403e-01	8.707608e-01	9.802811e-01	6.946635e-01	7.075828e-01	1.315060e+00	1.180785e+00	1.172968e+00	1.089766e+00	8.179734e-01	8.670045e-01	8.142024e-01	1.316654e+00	1.003187e+00	9.590646e-01	1.056057e+00	1.307852e+00	1.198498e+00	1.198087e+00	1.183576e+00	8.858459e-01	1.438840e+00	1.440870e+00	1.467294e+00	1.636311e+00	1.320210e+00	1.327652e+00	1.319218e+00	1.301311e+00	9.048462e-01	7.846964e-01	1.309118e+00	1.322628e+00	1.378265e+00	1.310655e+00	1.245908e+00	1.345317e+00	1.187491e+00	1.188508e+00	1.125404e+00	1.248960e+00	1.314147e+00	1.367700e+00	1.371846e+00	1.372678e+00	1.379935e+00	1.424367e+00	1.420502e+00	1.421991e+00	1.392133e+00	1.324606e+00	1.352404e+00	1.377847e+00	1.387308e+00	1.226129e+00	1.253267e+00	1.183060e+00	1.251726e+00	1.259228e+00	1.018913e+00	1.196502e+00	1.227290e+00	1.192317e+00	1.057779e+00	1.267098e+00	1.259340e+00	1.248203e+00	1.044538e+00	1.396434e+00	1.461915e+00	8.784974e-01	9.390293e-01	1.287717e+00	1.278400e+00	1.287788e+00	1.396552e+00	1.408343e+00	1.498097e+00	1.472115e+00	1.475991e+00	1.324369e+00	1.325518e+00	1.334365e+00	1.319660e+00	1.315328e+00	1.119508e+00	1.151199e+00	1.199548e+00	1.201001e+00	8.221954e-01	8.320632e-01	8.343885e-01	9.330477e-01	1.362241e+00	1.289667e+00	1.292580e+00	1.297241e+00	1.260986e+00	1.137582e+00	1.326418e+00	1.294333e+00	1.295889e+00	1.311249e+00	9.084431e-01	7.947879e-01	1.201387e+00	1.208743e+00	1.156993e+00	1.026674e+00	1.084567e+00	1.306724e+00	1.350382e+00	1.314308e+00	1.382551e+00	1.203501e+00	1.134220e+00	1.230465e+00	1.239781e+00	1.312649e+00	1.215306e+00	1.368470e+00	1.276806e+00	1.357889e+00	1.416684e+00	1.193246e+00	1.398898e+00	1.400868e+00	1.393451e+00	1.392269e+00	1.322268e+00	1.350692e+00	1.372828e+00	1.384727e+00	1.328426e+00	1.289453e+00	1.294606e+00	1.336953e+00	1.285219e+00	1.379107e+00	1.356464e+00	7.652582e-01	8.155144e-01	7.033438e-01	7.221364e-01	1.393520e+00	1.124517e+00	1.082583e+00	1.041362e+00	1.061451e+00	9.997975e-01	9.243518e-01	9.966621e-01	8.463690e-01	9.107322e-01	1.343109e+00	1.130903e+00	1.147346e+00	1.220945e+00	1.187274e+00	8.764231e-01	8.856373e-01	1.315690e+00	1.324019e+00	1.325111e+00	1.319365e+00	1.401602e+00	1.454822e+00	1.459546e+00	1.260097e+00	1.264372e+00	1.241758e+00	1.262972e+00	1.247147e+00	1.273807e+00	1.249759e+00	1.309190e+00	1.364048e+00	1.283052e+00	1.301370e+00	1.294082e+00	1.458153e+00	1.433890e+00	1.445713e+00	1.479654e+00	1.341525e+00	1.336471e+00	1.348539e+00	1.331120e+00	1.376426e+00	1.370752e+00	1.379491e+00	1.076008e+00	1.353067e+00	1.301305e+00	1.285765e+00	1.238439e+00	1.272068e+00	1.213311e+00	9.092163e-01	1.007598e+00	9.945233e-01	1.316468e+00	1.331322e+00	1.328071e+00	1.246137e+00	1.302223e+00	1.191495e+00	1.169442e+00	1.269427e+00	1.277389e+00	1.277929e+00	1.423188e+00	7.411474e-01	7.939755e-01	1.246329e+00	1.328150e+00	7.494888e-01	7.317940e-01	1.325397e+00	1.289118e+00	1.284649e+00	1.334891e+00	1.461614e+00	1.073672e+00	1.109420e+00	1.049596e+00	1.317402e+00	1.331104e+00	1.372910e+00	1.379984e+00	1.334330e+00	1.323324e+00	1.360062e+00	1.363593e+00	1.379082e+00	1.209103e+00	1.240102e+00	9.783099e-01	1.073348e+00	1.059799e+00	8.587887e-01	1.267116e+00	1.295327e+00	1.409956e+00	1.416663e+00	1.487252e+00	1.078957e+00	1.529927e+00	1.499808e+00	1.512275e+00	1.136990e+00	1.096737e+00	8.440225e-01	8.643734e-01	8.289465e-01	7.973028e-01	8.282116e-01	8.422798e-01	1.278725e+00	1.282019e+00	8.369020e-01	1.104179e+00	1.102466e+00	1.210864e+00	1.190480e+00	1.182710e+00	7.515785e-01	7.343143e-01	7.813184e-01	7.675498e-01	7.910348e-01	1.315425e+00	1.308953e+00	1.309221e+00	1.312903e+00	8.559611e-01	1.398494e+00	1.142862e+00	1.337143e+00	1.332133e+00	1.326161e+00	1.313024e+00	1.320807e+00	1.316806e+00	1.305789e+00	1.308270e+00	1.296974e+00	1.401187e+00	1.108124