# vtk DataFile Version 3.0
vtk output
ASCII
DATASET UNSTRUCTURED_GRID
POINTS 198 double
0.000000e+00	0.000000e+00	0.0	3.244181e-03	3.804641e-03	0.0	6.692049e-03	7.661238e-03	0.0	1.108429e-02	1.076594e-02	0.0	1.569086e-02	1.389373e-02	0.0	2.088110e-02	1.643083e-02	0.0	2.628714e-02	1.898690e-02	0.0	3.211328e-02	2.109161e-02	0.0	3.816579e-02	2.319733e-02	0.0	4.453146e-02	2.505203e-02	0.0	5.112115e-02	2.693895e-02	0.0	5.794768e-02	2.882789e-02	0.0	6.495924e-02	3.091030e-02	0.0	7.216584e-02	3.316493e-02	0.0	7.951155e-02	3.575590e-02	0.0	8.707800e-02	3.845071e-02	0.0	9.493673e-02	4.104928e-02	0.0	1.031017e-01	4.347406e-02	0.0	1.116338e-01	4.551771e-02	0.0	1.204823e-01	4.722803e-02	0.0	1.296789e-01	4.843816e-02	0.0	1.391401e-01	4.953470e-02	0.0	1.488992e-01	5.018379e-02	0.0	1.589097e-01	5.084960e-02	0.0	1.691811e-01	5.134136e-02	0.0	1.797035e-01	5.181048e-02	0.0	1.904716e-01	5.231659e-02	0.0	2.014813e-01	5.288467e-02	0.0	2.127315e-01	5.346517e-02	0.0	2.242089e-01	5.420867e-02	0.0	2.359153e-01	5.500653e-02	0.0	2.478464e-01	5.583506e-02	0.0	2.599937e-01	5.672604e-02	0.0	2.723535e-01	5.763261e-02	0.0	2.849222e-01	5.849853e-02	0.0	2.976892e-01	5.935472e-02	0.0	3.106462e-01	6.018618e-02	0.0	3.237914e-01	6.085743e-02	0.0	3.371047e-01	6.153726e-02	0.0	3.505830e-01	6.202826e-02	0.0	3.642109e-01	6.242544e-02	0.0	3.779735e-01	6.276513e-02	0.0	3.918620e-01	6.279770e-02	0.0	4.058586e-01	6.283053e-02	0.0	4.199458e-01	6.256832e-02	0.0	4.341118e-01	6.216243e-02	0.0	4.483424e-01	6.170516e-02	0.0	4.626171e-01	6.103618e-02	0.0	4.769289e-01	6.036545e-02	0.0	4.912676e-01	5.979983e-02	0.0	5.056156e-01	5.927760e-02	0.0	5.199583e-01	5.888550e-02	0.0	5.342858e-01	5.893316e-02	0.0	5.485760e-01	5.898069e-02	0.0	5.627966e-01	5.960575e-02	0.0	5.769449e-01	6.042288e-02	0.0	5.910064e-01	6.132310e-02	0.0	6.049560e-01	6.247006e-02	0.0	6.187978e-01	6.360817e-02	0.0	6.325304e-01	6.458371e-02	0.0	6.461332e-01	6.550034e-02	0.0	6.595978e-01	6.623031e-02	0.0	6.729272e-01	6.640677e-02	0.0	6.860885e-01	6.658100e-02	0.0	6.990565e-01	6.608568e-02	0.0	7.118310e-01	6.535063e-02	0.0	7.243892e-01	6.442200e-02	0.0	7.366737e-01	6.278520e-02	0.0	7.487468e-01	6.117655e-02	0.0	7.604742e-01	5.887119e-02	0.0	7.719356e-01	5.635818e-02	0.0	7.830949e-01	5.360650e-02	0.0	7.938683e-01	5.031457e-02	0.0	8.044114e-01	4.709301e-02	0.0	8.145794e-01	4.351329e-02	0.0	8.245100e-01	4.000251e-02	0.0	8.342222e-01	3.662288e-02	0.0	8.437069e-01	3.335287e-02	0.0	8.529990e-01	3.031054e-02	0.0	8.621692e-01	2.772323e-02	0.0	8.710966e-01	2.520443e-02	0.0	8.798841e-01	2.315955e-02	0.0	8.884463e-01	2.124554e-02	0.0	8.967850e-01	1.948125e-02	0.0	9.049188e-01	1.794715e-02	0.0	9.128120e-01	1.645844e-02	0.0	9.204791e-01	1.507931e-02	0.0	9.279133e-01	1.375600e-02	0.0	9.351134e-01	1.246314e-02	0.0	9.420815e-01	1.119215e-02	0.0	9.488248e-01	9.961688e-03	0.0	9.553419e-01	8.741470e-03	0.0	9.616427e-01	7.561751e-03	0.0	9.677276e-01	6.400905e-03	0.0	9.736045e-01	5.275958e-03	0.0	9.792753e-01	4.172401e-03	0.0	9.847468e-01	3.100505e-03	0.0	9.900227e-01	2.053892e-03	0.0	9.951070e-01	1.026973e-03	0.0	1.000000e+00	0.000000e+00	0.0	9.950050e-01	2.227524e-04	0.0	9.898227e-01	4.249180e-04	0.0	9.844474e-01	5.742171e-04	0.0	9.788751e-01	6.765507e-04	0.0	9.731015e-01	7.532562e-04	0.0	9.671218e-01	7.691655e-04	0.0	9.609321e-01	7.624239e-04	0.0	9.545280e-01	6.892667e-04	0.0	9.479051e-01	6.009876e-04	0.0	9.410608e-01	4.175957e-04	0.0	9.339894e-01	2.281177e-04	0.0	9.266905e-01	-6.607299e-05	0.0	9.191581e-01	-3.944868e-04	0.0	9.113922e-01	-8.042382e-04	0.0	9.033932e-01	-1.358066e-03	0.0	8.951514e-01	-1.928708e-03	0.0	8.866904e-01	-2.806426e-03	0.0	8.779876e-01	-3.759910e-03	0.0	8.690632e-01	-4.929234e-03	0.0	8.599337e-01	-6.442767e-03	0.0	8.505570e-01	-7.997298e-03	0.0	8.410395e-01	-1.013790e-02	0.0	8.312795e-01	-1.234124e-02	0.0	8.213122e-01	-1.475063e-02	0.0	8.111218e-01	-1.729144e-02	0.0	8.006780e-01	-1.982854e-02	0.0	7.899740e-01	-2.232055e-02	0.0	7.790325e-01	-2.484443e-02	0.0	7.677669e-01	-2.696908e-02	0.0	7.562754e-01	-2.913636e-02	0.0	7.445187e-01	-3.108402e-02	0.0	7.325192e-01	-3.290517e-02	0.0	7.203071e-01	-3.473332e-02	0.0	7.078649e-01	-3.639074e-02	0.0	6.952288e-01	-3.807399e-02	0.0	6.824038e-01	-3.975164e-02	0.0	6.694001e-01	-4.142852e-02	0.0	6.562311e-01	-4.312711e-02	0.0	6.429147e-01	-4.490176e-02	0.0	6.294551e-01	-4.669549e-02	0.0	6.158692e-01	-4.854424e-02	0.0	6.021703e-01	-5.045274e-02	0.0	5.883653e-01	-5.237603e-02	0.0	5.744805e-01	-5.440359e-02	0.0	5.605176e-01	-5.644952e-02	0.0	5.464930e-01	-5.852841e-02	0.0	5.324225e-01	-6.064924e-02	0.0	5.183156e-01	-6.277559e-02	0.0	5.041493e-01	-6.463851e-02	0.0	4.899708e-01	-6.646765e-02	0.0	4.757700e-01	-6.800267e-02	0.0	4.615419e-01	-6.904632e-02	0.0	4.473507e-01	-7.008727e-02	0.0	4.331790e-01	-7.001569e-02	0.0	4.190688e-01	-6.979078e-02	0.0	4.050668e-01	-6.909559e-02	0.0	3.912034e-01	-6.765238e-02	0.0	3.774465e-01	-6.622026e-02	0.0	3.638823e-01	-6.423056e-02	0.0	3.504600e-01	-6.217618e-02	0.0	3.371848e-01	-6.011632e-02	0.0	3.240723e-01	-5.802586e-02	0.0	3.111244e-01	-5.596166e-02	0.0	2.983102e-01	-5.420990e-02	0.0	2.856693e-01	-5.256288e-02	0.0	2.732117e-01	-5.103508e-02	0.0	2.609203e-01	-4.985120e-02	0.0	2.488392e-01	-4.868758e-02	0.0	2.369550e-01	-4.780160e-02	0.0	2.252845e-01	-4.705813e-02	0.0	2.138417e-01	-4.636662e-02	0.0	2.026186e-01	-4.599330e-02	0.0	1.916344e-01	-4.562793e-02	0.0	1.808904e-01	-4.534864e-02	0.0	1.703901e-01	-4.513972e-02	0.0	1.601372e-01	-4.493573e-02	0.0	1.501385e-01	-4.456369e-02	0.0	1.403899e-01	-4.419883e-02	0.0	1.309069e-01	-4.361288e-02	0.0	1.216928e-01	-4.275365e-02	0.0	1.127277e-01	-4.191765e-02	0.0	1.040970e-01	-4.046276e-02	0.0	9.571829e-02	-3.898918e-02	0.0	8.762841e-02	-3.733586e-02	0.0	7.984165e-02	-3.542358e-02	0.0	7.228873e-02	-3.356872e-02	0.0	6.505205e-02	-3.145369e-02	0.0	5.804169e-02	-2.940002e-02	0.0	5.128156e-02	-2.731736e-02	0.0	4.475092e-02	-2.526097e-02	0.0	3.847530e-02	-2.314503e-02	0.0	3.243167e-02	-2.102553e-02	0.0	2.671676e-02	-1.865471e-02	0.0	2.125963e-02	-1.621842e-02	0.0	1.625691e-02	-1.333505e-02	0.0	1.159322e-02	-1.030052e-02	0.0	7.276406e-03	-7.094101e-03	0.0	3.397724e-03	-3.654220e-03	0.0	
CELLS 198	594
2	16	17	2	17	18	2	18	19	2	19	20	2	20	21	2	21	22	2	22	23	2	23	24	2	24	25	2	25	26	2	26	27	2	27	28	2	28	29	2	29	30	2	30	31	2	31	32	2	32	33	2	33	34	2	34	35	2	35	36	2	36	37	2	37	38	2	38	39	2	39	40	2	40	41	2	41	42	2	42	43	2	43	44	2	44	45	2	45	46	2	46	47	2	47	48	2	48	49	2	49	50	2	50	51	2	51	52	2	52	53	2	53	54	2	54	55	2	55	56	2	56	57	2	57	58	2	58	59	2	59	60	2	60	61	2	61	62	2	62	63	2	63	64	2	64	65	2	65	66	2	66	67	2	67	68	2	68	69	2	69	70	2	70	71	2	71	72	2	72	73	2	73	74	2	74	75	2	75	76	2	76	77	2	77	78	2	78	79	2	79	80	2	80	81	2	81	82	2	82	83	2	83	84	2	84	85	2	0	1	2	1	2	2	2	3	2	3	4	2	4	5	2	5	6	2	6	7	2	7	8	2	8	9	2	9	10	2	10	11	2	11	12	2	12	13	2	13	14	2	14	15	2	15	16	2	151	152	2	152	153	2	153	154	2	154	155	2	155	156	2	156	157	2	157	158	2	158	159	2	159	160	2	160	161	2	161	162	2	162	163	2	163	164	2	164	165	2	165	166	2	166	167	2	167	168	2	168	169	2	169	170	2	170	171	2	171	172	2	172	173	2	173	174	2	174	175	2	175	176	2	176	177	2	177	178	2	178	179	2	179	180	2	180	181	2	181	182	2	182	183	2	183	184	2	184	185	2	185	186	2	186	187	2	187	188	2	188	189	2	189	190	2	190	191	2	191	192	2	192	193	2	193	194	2	194	195	2	195	196	2	196	197	2	197	0	2	85	86	2	86	87	2	87	88	2	88	89	2	89	90	2	90	91	2	91	92	2	92	93	2	93	94	2	94	95	2	95	96	2	96	97	2	97	98	2	98	99	2	99	100	2	100	101	2	101	102	2	102	103	2	103	104	2	104	105	2	105	106	2	106	107	2	107	108	2	108	109	2	109	110	2	110	111	2	111	112	2	112	113	2	113	114	2	114	115	2	115	116	2	116	117	2	117	118	2	118	119	2	119	120	2	120	121	2	121	122	2	122	123	2	123	124	2	124	125	2	125	126	2	126	127	2	127	128	2	128	129	2	129	130	2	130	131	2	131	132	2	132	133	2	133	134	2	134	135	2	135	136	2	136	137	2	137	138	2	138	139	2	139	140	2	140	141	2	141	142	2	142	143	2	143	144	2	144	145	2	145	146	2	146	147	2	147	148	2	148	149	2	149	150	2	150	151	
CELL_TYPES 198
3	3	3	3	3	3	3	3	3	3	3	3	3	3	3	3	3	3	3	3	3	3	3	3	3	3	3	3	3	3	3	3	3	3	3	3	3	3	3	3	3	3	3	3	3	3	3	3	3	3	3	3	3	3	3	3	3	3	3	3	3	3	3	3	3	3	3	3	3	3	3	3	3	3	3	3	3	3	3	3	3	3	3	3	3	3	3	3	3	3	3	3	3	3	3	3	3	3	3	3	3	3	3	3	3	3	3	3	3	3	3	3	3	3	3	3	3	3	3	3	3	3	3	3	3	3	3	3	3	3	3	3	3	3	3	3	3	3	3	3	3	3	3	3	3	3	3	3	3	3	3	3	3	3	3	3	3	3	3	3	3	3	3	3	3	3	3	3	3	3	3	3	3	3	3	3	3	3	3	3	3	3	3	3	3	3	3	3	3	3	3	3	3	3	3	3	3	3	
POINT_DATA 198

SCALARS Density double 1
LOOKUP_TABLE default
1.557139e+00	1.152901e+00	1.178840e+00	1.101174e+00	1.055281e+00	1.016155e+00	1.007839e+00	1.011930e+00	1.050135e+00	1.095541e+00	1.137851e+00	1.168457e+00	1.184381e+00	1.182291e+00	1.154477e+00	1.089621e+00	1.020107e+00	9.400605e-01	8.632657e-01	7.929365e-01	7.487524e-01	7.137827e-01	6.907668e-01	6.883006e-01	6.848864e-01	6.931641e-01	7.066706e-01	7.187787e-01	7.381156e-01	7.612219e-01	7.769123e-01	7.888996e-01	7.979722e-01	8.003256e-01	8.030342e-01	8.084681e-01	8.081006e-01	8.106215e-01	8.137633e-01	8.124638e-01	8.135728e-01	7.975797e-01	7.991427e-01	8.720536e-01	1.049456e+00	1.148142e+00	1.159464e+00	1.165760e+00	1.189614e+00	1.208527e+00	1.222006e+00	1.239383e+00	1.242293e+00	1.243664e+00	1.241217e+00	1.217362e+00	1.199566e+00	1.174729e+00	1.135030e+00	1.099265e+00	1.061142e+00	1.006358e+00	9.620614e-01	9.151505e-01	8.607219e-01	8.356074e-01	7.852951e-01	7.445434e-01	7.062796e-01	6.523746e-01	6.160470e-01	5.892063e-01	6.852578e-01	1.016879e+00	1.203224e+00	1.218217e+00	1.236463e+00	1.253345e+00	1.271054e+00	1.276221e+00	1.281549e+00	1.286706e+00	1.283302e+00	1.286859e+00	1.285619e+00	1.284059e+00	1.284438e+00	1.283730e+00	1.284255e+00	1.286528e+00	1.288185e+00	1.290925e+00	1.294372e+00	1.297873e+00	1.302128e+00	1.306316e+00	1.311103e+00	1.323595e+00	1.311790e+00	1.335110e+00	1.454436e+00	1.415399e+00	1.416804e+00	1.417784e+00	1.420568e+00	1.421242e+00	1.422426e+00	1.424625e+00	1.425556e+00	1.427191e+00	1.429293e+00	1.429879e+00	1.434281e+00	1.433982e+00	1.439410e+00	1.441646e+00	1.439782e+00	1.444750e+00	1.437439e+00	1.439364e+00	1.433218e+00	1.415790e+00	1.405545e+00	1.383869e+00	1.363207e+00	1.346407e+00	1.319271e+00	1.303117e+00	1.295623e+00	1.283029e+00	1.284259e+00	1.280019e+00	1.279672e+00	1.283659e+00	1.283144e+00	1.283880e+00	1.284923e+00	1.283146e+00	1.280492e+00	1.277585e+00	1.271988e+00	1.267467e+00	1.259973e+00	1.249215e+00	1.238936e+00	1.222675e+00	1.195149e+00	1.172548e+00	1.147364e+00	1.095358e+00	1.014480e+00	9.277105e-01	9.330760e-01	9.766707e-01	1.002011e+00	1.061632e+00	1.105656e+00	1.148150e+00	1.200486e+00	1.232629e+00	1.262011e+00	1.293529e+00	1.312974e+00	1.323523e+00	1.339232e+00	1.344655e+00	1.349241e+00	1.354823e+00	1.351135e+00	1.355910e+00	1.353346e+00	1.343534e+00	1.338700e+00	1.328071e+00	1.311008e+00	1.299948e+00	1.285656e+00	1.266330e+00	1.263989e+00	1.246298e+00	1.247837e+00	1.271846e+00	1.279962e+00	1.306703e+00	1.325247e+00	1.347097e+00	1.375224e+00	1.393313e+00	1.411221e+00	1.427896e+00	1.439702e+00	1.457789e+00	1.477571e+00	1.504527e+00	1.549486e+00	1.592045e+00	1.602475e+00	1.709456e+00	
VECTORS Momentum double
1.613326e+01	1.939045e+02	0.0	1.614298e+02	1.788509e+02	0.0	1.998179e+02	1.767755e+02	0.0	2.349349e+02	1.618205e+02	0.0	2.568321e+02	1.479226e+02	0.0	2.691575e+02	1.291462e+02	0.0	2.804437e+02	1.158670e+02	0.0	2.860076e+02	1.008549e+02	0.0	2.875768e+02	9.152546e+01	0.0	2.873505e+02	8.291880e+01	0.0	2.841680e+02	7.964157e+01	0.0	2.819042e+02	8.080964e+01	0.0	2.798043e+02	8.537501e+01	0.0	2.803772e+02	9.348130e+01	0.0	2.855682e+02	1.017209e+02	0.0	2.918243e+02	1.008417e+02	0.0	2.992247e+02	9.424731e+01	0.0	3.024447e+02	8.116889e+01	0.0	3.025087e+02	6.565070e+01	0.0	2.973290e+02	4.806868e+01	0.0	2.929755e+02	3.591810e+01	0.0	2.883854e+02	2.590250e+01	0.0	2.839911e+02	1.862059e+01	0.0	2.844304e+02	1.606900e+01	0.0	2.835526e+02	1.295517e+01	0.0	2.856057e+02	1.276331e+01	0.0	2.891319e+02	1.428729e+01	0.0	2.916198e+02	1.513049e+01	0.0	2.948968e+02	1.709890e+01	0.0	2.984994e+02	1.995161e+01	0.0	3.007544e+02	2.098004e+01	0.0	3.025046e+02	2.171072e+01	0.0	3.042398e+02	2.234270e+01	0.0	3.046840e+02	2.175432e+01	0.0	3.050925e+02	2.068884e+01	0.0	3.063636e+02	2.014627e+01	0.0	3.062909e+02	1.769566e+01	0.0	3.067293e+02	1.558970e+01	0.0	3.077282e+02	1.350694e+01	0.0	3.072782e+02	1.011220e+01	0.0	3.083431e+02	8.426157e+00	0.0	3.058611e+02	4.231118e+00	0.0	3.045489e+02	6.653294e-01	0.0	3.113324e+02	-3.669295e+00	0.0	3.119658e+02	-6.351760e+00	0.0	3.102535e+02	-8.635961e+00	0.0	3.094852e+02	-1.227020e+01	0.0	3.064770e+02	-1.448687e+01	0.0	3.040286e+02	-1.315336e+01	0.0	3.021631e+02	-1.146011e+01	0.0	2.991319e+02	-9.678857e+00	0.0	2.977869e+02	-3.607504e+00	0.0	2.967414e+02	9.974994e-01	0.0	2.964835e+02	6.866525e+00	0.0	2.997326e+02	1.543984e+01	0.0	3.023625e+02	1.848913e+01	0.0	3.056709e+02	2.234103e+01	0.0	3.102649e+02	2.575535e+01	0.0	3.141155e+02	2.417980e+01	0.0	3.174170e+02	2.199165e+01	0.0	3.208466e+02	1.985554e+01	0.0	3.211353e+02	1.148680e+01	0.0	3.203517e+02	4.334887e+00	0.0	3.187837e+02	-3.649103e+00	0.0	3.118889e+02	-1.515098e+01	0.0	3.104530e+02	-2.040405e+01	0.0	3.018479e+02	-3.078704e+01	0.0	2.943407e+02	-3.922464e+01	0.0	2.866717e+02	-4.682777e+01	0.0	2.720063e+02	-5.628239e+01	0.0	2.633611e+02	-6.188642e+01	0.0	2.474821e+02	-6.629346e+01	0.0	2.469042e+02	-7.496712e+01	0.0	2.449701e+02	-7.916146e+01	0.0	2.335351e+02	-8.121918e+01	0.0	2.268034e+02	-7.932547e+01	0.0	2.154540e+02	-7.436956e+01	0.0	2.063413e+02	-6.916220e+01	0.0	2.019448e+02	-6.133492e+01	0.0	1.986691e+02	-5.596701e+01	0.0	1.957576e+02	-5.044663e+01	0.0	1.960121e+02	-4.460836e+01	0.0	1.956572e+02	-4.262795e+01	0.0	1.959066e+02	-3.924232e+01	0.0	1.970722e+02	-3.715155e+01	0.0	1.972185e+02	-3.631644e+01	0.0	1.972424e+02	-3.527570e+01	0.0	1.972387e+02	-3.525754e+01	0.0	1.964179e+02	-3.555374e+01	0.0	1.954300e+02	-3.563520e+01	0.0	1.938175e+02	-3.583122e+01	0.0	1.918464e+02	-3.593584e+01	0.0	1.898728e+02	-3.588660e+01	0.0	1.876277e+02	-3.584280e+01	0.0	1.849386e+02	-3.563763e+01	0.0	1.815103e+02	-3.544750e+01	0.0	1.774909e+02	-3.499682e+01	0.0	1.737763e+02	-3.413209e+01	0.0	1.567309e+02	-3.440917e+01	0.0	1.942000e+02	-2.355956e+00	0.0	2.886453e+02	-1.579175e+01	0.0	2.686276e+02	-9.003313e+00	0.0	2.668043e+02	-6.171399e+00	0.0	2.652970e+02	-4.050653e+00	0.0	2.654972e+02	-2.156981e+00	0.0	2.644324e+02	-1.607946e-01	0.0	2.639532e+02	1.671327e+00	0.0	2.633831e+02	3.246066e+00	0.0	2.626589e+02	5.300565e+00	0.0	2.620909e+02	7.007673e+00	0.0	2.612152e+02	8.771993e+00	0.0	2.602469e+02	1.093135e+01	0.0	2.589949e+02	1.247532e+01	0.0	2.577004e+02	1.580128e+01	0.0	2.567367e+02	1.779443e+01	0.0	2.546623e+02	2.213521e+01	0.0	2.540837e+02	2.712472e+01	0.0	2.536752e+02	3.046333e+01	0.0	2.528458e+02	3.774663e+01	0.0	2.543207e+02	4.212476e+01	0.0	2.546021e+02	4.986760e+01	0.0	2.582247e+02	5.830500e+01	0.0	2.646563e+02	6.164792e+01	0.0	2.693493e+02	6.606843e+01	0.0	2.768592e+02	6.807007e+01	0.0	2.836276e+02	6.727892e+01	0.0	2.895089e+02	6.702123e+01	0.0	2.964810e+02	6.197800e+01	0.0	3.004606e+02	5.653519e+01	0.0	3.018304e+02	5.347270e+01	0.0	3.046274e+02	4.824994e+01	0.0	3.045438e+02	4.596895e+01	0.0	3.054722e+02	4.320547e+01	0.0	3.055052e+02	4.065120e+01	0.0	3.045895e+02	4.023408e+01	0.0	3.048685e+02	3.957847e+01	0.0	3.047001e+02	3.928323e+01	0.0	3.043435e+02	3.993389e+01	0.0	3.048564e+02	4.060990e+01	0.0	3.054413e+02	4.111005e+01	0.0	3.060522e+02	4.214562e+01	0.0	3.071314e+02	4.276318e+01	0.0	3.078684e+02	4.393522e+01	0.0	3.093321e+02	4.525179e+01	0.0	3.114217e+02	4.580264e+01	0.0	3.133266e+02	4.672282e+01	0.0	3.161919e+02	4.766178e+01	0.0	3.195586e+02	4.506483e+01	0.0	3.220043e+02	4.169888e+01	0.0	3.237903e+02	3.773410e+01	0.0	3.269352e+02	2.974861e+01	0.0	3.229421e+02	2.373051e+01	0.0	3.290590e+02	1.061437e+01	0.0	3.346034e+02	-3.246373e+00	0.0	3.320987e+02	-1.000883e+01	0.0	3.365256e+02	-2.566269e+01	0.0	3.308639e+02	-3.427353e+01	0.0	3.274500e+02	-4.110392e+01	0.0	3.232358e+02	-4.866396e+01	0.0	3.163787e+02	-4.861039e+01	0.0	3.116165e+02	-4.913562e+01	0.0	3.065708e+02	-4.915113e+01	0.0	3.015136e+02	-4.459662e+01	0.0	2.987788e+02	-3.980339e+01	0.0	2.965671e+02	-3.759508e+01	0.0	2.942616e+02	-3.222392e+01	0.0	2.936991e+02	-2.827297e+01	0.0	2.929491e+02	-2.507502e+01	0.0	2.927730e+02	-2.013951e+01	0.0	2.936715e+02	-1.832614e+01	0.0	2.936371e+02	-1.387923e+01	0.0	2.958751e+02	-9.883261e+00	0.0	2.987875e+02	-8.915036e+00	0.0	3.008701e+02	-6.824838e+00	0.0	3.039337e+02	-5.960755e+00	0.0	3.076347e+02	-8.812266e+00	0.0	3.099187e+02	-1.157751e+01	0.0	3.124547e+02	-1.553607e+01	0.0	3.145886e+02	-2.420614e+01	0.0	3.141243e+02	-2.896301e+01	0.0	3.143156e+02	-4.134284e+01	0.0	3.106591e+02	-5.367567e+01	0.0	3.046819e+02	-5.777161e+01	0.0	2.996644e+02	-6.748108e+01	0.0	2.915737e+02	-7.162193e+01	0.0	2.841193e+02	-7.653414e+01	0.0	2.752062e+02	-8.077714e+01	0.0	2.665021e+02	-8.000169e+01	0.0	2.593850e+02	-8.078462e+01	0.0	2.515029e+02	-8.195389e+01	0.0	2.428361e+02	-8.353484e+01	0.0	2.316171e+02	-8.841334e+01	0.0	2.162131e+02	-9.277351e+01	0.0	1.933706e+02	-9.772076e+01	0.0	1.583475e+02	-9.702241e+01	0.0	1.167764e+02	-8.177529e+01	0.0	7.667552e+01	-5.846446e+01	0.0	-4.852659e+00	-5.605162e-01	0.0	
SCALARS Energy double 1
LOOKUP_TABLE default
3.411554e+05	2.572113e+05	2.642694e+05	2.493589e+05	2.407405e+05	2.328935e+05	2.316117e+05	2.324317e+05	2.401228e+05	2.492433e+05	2.576896e+05	2.639067e+05	2.671679e+05	2.669469e+05	2.617318e+05	2.487943e+05	2.350036e+05	2.187640e+05	2.030652e+05	1.883001e+05	1.789977e+05	1.715705e+05	1.665511e+05	1.661098e+05	1.653305e+05	1.671647e+05	1.701899e+05	1.728223e+05	1.769560e+05	1.818753e+05	1.851949e+05	1.877374e+05	1.897090e+05	1.902140e+05	1.907815e+05	1.919815e+05	1.918851e+05	1.924150e+05	1.931293e+05	1.928114e+05	1.931388e+05	1.897230e+05	1.898829e+05	2.049946e+05	2.408391e+05	2.609727e+05	2.632616e+05	2.643434e+05	2.691012e+05	2.728900e+05	2.754763e+05	2.789962e+05	2.795304e+05	2.798043e+05	2.795384e+05	2.747664e+05	2.713251e+05	2.665395e+05	2.586355e+05	2.515438e+05	2.440316e+05	2.328976e+05	2.238748e+05	2.143257e+05	2.028398e+05	1.977589e+05	1.870466e+05	1.783804e+05	1.702302e+05	1.583698e+05	1.505683e+05	1.436910e+05	1.624858e+05	2.298318e+05	2.681902e+05	2.709534e+05	2.741422e+05	2.771993e+05	2.806478e+05	2.815308e+05	2.824728e+05	2.835223e+05	2.827614e+05	2.835004e+05	2.832689e+05	2.829357e+05	2.830094e+05	2.828580e+05	2.829363e+05	2.833791e+05	2.836647e+05	2.841665e+05	2.848192e+05	2.854738e+05	2.862719e+05	2.870287e+05	2.878925e+05	2.904207e+05	2.872795e+05	2.935686e+05	3.236178e+05	3.142356e+05	3.144303e+05	3.145548e+05	3.151542e+05	3.152399e+05	3.154656e+05	3.159024e+05	3.160633e+05	3.163821e+05	3.167848e+05	3.168628e+05	3.177356e+05	3.176148e+05	3.187243e+05	3.191112e+05	3.187105e+05	3.197641e+05	3.182190e+05	3.187368e+05	3.175175e+05	3.141001e+05	3.123126e+05	3.080465e+05	3.041440e+05	3.009981e+05	2.956601e+05	2.926522e+05	2.912758e+05	2.887002e+05	2.890867e+05	2.881726e+05	2.881359e+05	2.889458e+05	2.887725e+05	2.889391e+05	2.891429e+05	2.887536e+05	2.882406e+05	2.876786e+05	2.865634e+05	2.857016e+05	2.842038e+05	2.820820e+05	2.801010e+05	2.768757e+05	2.714026e+05	2.669682e+05	2.619445e+05	2.513989e+05	2.351769e+05	2.173303e+05	2.189426e+05	2.281791e+05	2.330350e+05	2.455541e+05	2.540692e+05	2.625398e+05	2.730532e+05	2.791831e+05	2.849457e+05	2.911621e+05	2.948400e+05	2.968263e+05	2.999593e+05	3.009122e+05	3.018149e+05	3.029230e+05	3.021135e+05	3.031652e+05	3.026093e+05	3.006781e+05	2.998464e+05	2.977484e+05	2.943756e+05	2.923162e+05	2.894956e+05	2.856579e+05	2.853607e+05	2.816796e+05	2.821125e+05	2.869770e+05	2.883067e+05	2.936874e+05	2.971112e+05	3.013140e+05	3.067773e+05	3.100929e+05	3.135095e+05	3.166547e+05	3.187582e+05	3.221601e+05	3.257788e+05	3.307297e+05	3.392019e+05	3.470755e+05	3.483423e+05	3.707155e+05	
SCALARS Pressure double 1
LOOKUP_TABLE default
1.315995e+05	9.281476e+04	9.363203e+04	8.496292e+04	7.964778e+04	7.561589e+04	7.437314e+04	7.479513e+04	7.870330e+04	8.336824e+04	8.776727e+04	9.084237e+04	9.241584e+04	9.200234e+04	8.877273e+04	8.201979e+04	7.470581e+04	6.664286e+04	5.902631e+04	5.243923e+04	4.832710e+04	4.513729e+04	4.316894e+04	4.286152e+04	4.260425e+04	4.328317e+04	4.435870e+04	4.540229e+04	4.713938e+04	4.923530e+04	5.067935e+04	5.177629e+04	5.255920e+04	5.276868e+04	5.302355e+04	5.347329e+04	5.345810e+04	5.369352e+04	5.393312e+04	5.385651e+04	5.386574e+04	5.242598e+04	5.274065e+04	5.976497e+04	7.778068e+04	8.760862e+04	8.875705e+04	8.958684e+04	9.207133e+04	9.402453e+04	9.553043e+04	9.728651e+04	9.763572e+04	9.777809e+04	9.730088e+04	9.483051e+04	9.286873e+04	9.011368e+04	8.596510e+04	8.219845e+04	7.813612e+04	7.263757e+04	6.821157e+04	6.351834e+04	5.847951e+04	5.593543e+04	5.137269e+04	4.766651e+04	4.419969e+04	3.969428e+04	3.646648e+04	3.519482e+04	4.556171e+04	7.889735e+04	9.711419e+04	9.890318e+04	1.012537e+05	1.033223e+05	1.052502e+05	1.059361e+05	1.066115e+05	1.071277e+05	1.068552e+05	1.071960e+05	1.070510e+05	1.069107e+05	1.069522e+05	1.068886e+05	1.069695e+05	1.072169e+05	1.074343e+05	1.077644e+05	1.081582e+05	1.085667e+05	1.090604e+05	1.095750e+05	1.101646e+05	1.114292e+05	1.109861e+05	1.117771e+05	1.179560e+05	1.154862e+05	1.157181e+05	1.158911e+05	1.161370e+05	1.162561e+05	1.163897e+05	1.166207e+05	1.167424e+05	1.169198e+05	1.171553e+05	1.172551e+05	1.177190e+05	1.177488e+05	1.182873e+05	1.185795e+05	1.184142e+05	1.188689e+05	1.181942e+05	1.182610e+05	1.176143e+05	1.157403e+05	1.144176e+05	1.121028e+05	1.097321e+05	1.077774e+05	1.048768e+05	1.029804e+05	1.020813e+05	1.008334e+05	1.008205e+05	1.004474e+05	1.003787e+05	1.007791e+05	1.007962e+05	1.008529e+05	1.009660e+05	1.008157e+05	1.005228e+05	1.002021e+05	9.961828e+04	9.910730e+04	9.832988e+04	9.718550e+04	9.604580e+04	9.433437e+04	9.145040e+04	8.902280e+04	8.640079e+04	8.115695e+04	7.282408e+04	6.432705e+04	6.434368e+04	6.834274e+04	7.118037e+04	7.676259e+04	8.161322e+04	8.604401e+04	9.142023e+04	9.504884e+04	9.820676e+04	1.015596e+05	1.037850e+05	1.050015e+05	1.066379e+05	1.073313e+05	1.078212e+05	1.084077e+05	1.080974e+05	1.084955e+05	1.082731e+05	1.072251e+05	1.065893e+05	1.054601e+05	1.036525e+05	1.023541e+05	1.008357e+05	9.880601e+04	9.839226e+04	9.670246e+04	9.673657e+04	9.916152e+04	1.002959e+05	1.030337e+05	1.052402e+05	1.076711e+05	1.107473e+05	1.129236e+05	1.149438e+05	1.168614e+05	1.183420e+05	1.204316e+05	1.228188e+05	1.260518e+05	1.312293e+05	1.362770e+05	1.381766e+05	1.482834e+05	
SCALARS Temperature double 1
LOOKUP_TABLE default
2.944131e+02	2.804501e+02	2.766941e+02	2.687841e+02	2.629275e+02	2.592290e+02	2.570722e+02	2.574857e+02	2.610826e+02	2.650955e+02	2.687062e+02	2.708358e+02	2.718224e+02	2.710845e+02	2.678704e+02	2.622247e+02	2.551167e+02	2.469609e+02	2.381944e+02	2.303818e+02	2.248448e+02	2.202925e+02	2.177059e+02	2.169301e+02	2.167029e+02	2.175271e+02	2.186715e+02	2.200457e+02	2.224794e+02	2.253179e+02	2.272424e+02	2.286333e+02	2.294517e+02	2.296888e+02	2.300197e+02	2.304116e+02	2.304509e+02	2.307460e+02	2.308808e+02	2.309216e+02	2.306464e+02	2.289828e+02	2.299066e+02	2.387448e+02	2.581891e+02	2.658163e+02	2.666712e+02	2.677106e+02	2.696178e+02	2.710287e+02	2.723321e+02	2.734496e+02	2.737884e+02	2.738853e+02	2.730861e+02	2.713680e+02	2.696968e+02	2.672289e+02	2.638427e+02	2.604902e+02	2.565126e+02	2.514426e+02	2.469936e+02	2.417892e+02	2.366853e+02	2.331927e+02	2.278924e+02	2.230250e+02	2.180082e+02	2.119636e+02	2.062103e+02	2.080855e+02	2.316202e+02	2.702861e+02	2.811685e+02	2.828237e+02	2.852727e+02	2.871797e+02	2.884624e+02	2.891667e+02	2.898007e+02	2.900366e+02	2.900663e+02	2.901871e+02	2.900741e+02	2.900458e+02	2.900726e+02	2.900600e+02	2.901611e+02	2.903182e+02	2.905327e+02	2.908069e+02	2.910923e+02	2.914034e+02	2.917721e+02	2.922090e+02	2.927087e+02	2.932743e+02	2.947370e+02	2.916528e+02	2.825242e+02	2.842378e+02	2.845260e+02	2.847544e+02	2.847993e+02	2.849560e+02	2.850462e+02	2.851709e+02	2.852821e+02	2.853885e+02	2.855427e+02	2.856689e+02	2.859186e+02	2.860510e+02	2.862754e+02	2.865372e+02	2.865084e+02	2.866196e+02	2.864424e+02	2.862208e+02	2.858763e+02	2.847845e+02	2.835818e+02	2.821966e+02	2.804157e+02	2.788570e+02	2.769336e+02	2.752971e+02	2.744720e+02	2.737778e+02	2.734807e+02	2.733710e+02	2.732581e+02	2.734961e+02	2.736522e+02	2.736493e+02	2.737336e+02	2.737048e+02	2.734752e+02	2.732231e+02	2.728263e+02	2.723952e+02	2.718659e+02	2.710159e+02	2.700598e+02	2.687752e+02	2.665592e+02	2.644850e+02	2.623292e+02	2.581071e+02	2.500701e+02	2.415525e+02	2.402256e+02	2.437668e+02	2.474674e+02	2.518870e+02	2.571407e+02	2.610672e+02	2.652866e+02	2.686241e+02	2.710870e+02	2.735112e+02	2.753652e+02	2.763723e+02	2.773871e+02	2.780648e+02	2.783843e+02	2.787455e+02	2.787063e+02	2.787476e+02	2.787032e+02	2.780214e+02	2.773707e+02	2.766288e+02	2.754260e+02	2.742898e+02	2.732245e+02	2.718108e+02	2.711740e+02	2.702999e+02	2.700619e+02	2.716058e+02	2.729709e+02	2.746836e+02	2.766401e+02	2.784393e+02	2.805369e+02	2.823360e+02	2.837403e+02	2.851050e+02	2.863498e+02	2.877903e+02	2.895655e+02	2.918633e+02	2.950351e+02	2.981931e+02	3.003818e+02	3.021795e+02	
SCALARS Mach double 1
LOOKUP_TABLE default
3.632713e-01	6.224756e-01	6.786805e-01	7.882297e-01	8.640138e-01	9.102235e-01	9.366998e-01	9.316483e-01	8.872009e-01	8.363755e-01	7.892630e-01	7.607379e-01	7.473113e-01	7.573666e-01	8.002999e-01	8.728805e-01	9.604465e-01	1.057377e+00	1.158971e+00	1.248327e+00	1.311421e+00	1.363337e+00	1.392903e+00	1.401784e+00	1.404387e+00	1.394949e+00	1.381859e+00	1.366156e+00	1.338384e+00	1.306031e+00	1.284105e+00	1.268257e+00	1.258930e+00	1.256228e+00	1.252456e+00	1.247988e+00	1.247539e+00	1.244175e+00	1.242637e+00	1.242172e+00	1.245311e+00	1.264275e+00	1.253745e+00	1.152645e+00	9.230282e-01	8.270840e-01	8.159940e-01	8.024019e-01	7.771255e-01	7.581249e-01	7.403183e-01	7.248436e-01	7.201122e-01	7.187545e-01	7.298998e-01	7.535126e-01	7.760687e-01	8.087152e-01	8.524000e-01	8.945875e-01	9.435192e-01	1.004488e+00	1.056994e+00	1.117544e+00	1.176290e+00	1.216251e+00	1.276700e+00	1.332162e+00	1.389444e+00	1.458834e+00	1.525475e+00	1.503677e+00	1.234203e+00	7.681594e-01	6.113180e-01	5.850297e-01	5.444251e-01	5.111048e-01	4.876808e-01	4.744217e-01	4.622178e-01	4.576079e-01	4.570248e-01	4.546456e-01	4.568704e-01	4.574268e-01	4.569004e-01	4.571467e-01	4.551578e-01	4.520521e-01	4.477812e-01	4.422725e-01	4.364770e-01	4.300824e-01	4.223965e-01	4.131285e-01	4.023045e-01	3.897347e-01	3.554235e-01	4.248957e-01	5.898507e-01	5.618571e-01	5.570438e-01	5.532086e-01	5.524513e-01	5.498051e-01	5.482764e-01	5.461585e-01	5.442645e-01	5.424478e-01	5.398058e-01	5.376367e-01	5.333227e-01	5.310261e-01	5.271126e-01	5.225176e-01	5.230260e-01	5.210659e-01	5.241858e-01	5.280669e-01	5.340555e-01	5.527003e-01	5.726945e-01	5.950906e-01	6.230059e-01	6.467250e-01	6.751924e-01	6.987978e-01	7.105034e-01	7.202601e-01	7.244101e-01	7.259389e-01	7.275096e-01	7.241954e-01	7.220168e-01	7.220571e-01	7.208785e-01	7.212811e-01	7.244864e-01	7.279961e-01	7.334992e-01	7.394495e-01	7.467164e-01	7.582977e-01	7.712024e-01	7.883488e-01	8.174507e-01	8.442027e-01	8.715643e-01	9.240347e-01	1.020772e+00	1.120281e+00	1.135597e+00	1.094628e+00	1.051438e+00	9.991973e-01	9.358642e-01	8.873936e-01	8.339164e-01	7.903517e-01	7.573335e-01	7.239844e-01	6.978256e-01	6.833486e-01	6.685549e-01	6.585512e-01	6.537998e-01	6.483983e-01	6.489859e-01	6.483664e-01	6.490328e-01	6.591953e-01	6.687953e-01	6.796293e-01	6.969568e-01	7.130728e-01	7.279762e-01	7.474704e-01	7.561513e-01	7.679731e-01	7.711741e-01	7.502722e-01	7.314970e-01	7.075132e-01	6.794653e-01	6.529783e-01	6.211352e-01	5.928654e-01	5.700905e-01	5.472786e-01	5.258103e-01	5.000652e-01	4.667753e-01	4.204750e-01	3.480616e-01	2.586729e-01	1.731809e-01	8.200088e-03	
SCALARS Pressure_Coefficient double 1
LOOKUP_TABLE default