# vtk DataFile Version 3.0
vtk output
ASCII
DATASET UNSTRUCTURED_GRID
POINTS 1836 double
1.000000e+02	0.000000e+00	0.0	9.917900e+01	1.278772e+01	0.0	9.672949e+01	2.536546e+01	0.0	9.269168e+01	3.752670e+01	0.0	8.713187e+01	4.907176e+01	0.0	8.014136e+01	5.981105e+01	0.0	7.183494e+01	6.956826e+01	0.0	6.234898e+01	7.818315e+01	0.0	5.183926e+01	8.551428e+01	0.0	4.047833e+01	9.144126e+01	0.0	2.845276e+01	9.586679e+01	0.0	1.595999e+01	9.871818e+01	0.0	3.205158e+00	9.994862e+01	0.0	-9.602303e+00	9.953791e+01	0.0	-2.225209e+01	9.749279e+01	0.0	-3.453651e+01	9.384684e+01	0.0	-4.625383e+01	8.865993e+01	0.0	-5.721167e+01	8.201723e+01	0.0	-6.723009e+01	7.402780e+01	0.0	-7.614460e+01	6.482284e+01	0.0	-8.380881e+01	5.455349e+01	0.0	-9.009689e+01	4.338837e+01	0.0	-9.490557e+01	3.151082e+01	0.0	-9.815592e+01	1.911586e+01	0.0	-9.979454e+01	6.407022e+00	0.0	-9.979454e+01	-6.407022e+00	0.0	-9.815592e+01	-1.911586e+01	0.0	-9.490557e+01	-3.151082e+01	0.0	-9.009689e+01	-4.338837e+01	0.0	-8.380881e+01	-5.455349e+01	0.0	-7.614460e+01	-6.482284e+01	0.0	-6.723009e+01	-7.402780e+01	0.0	-5.721167e+01	-8.201723e+01	0.0	-4.625383e+01	-8.865993e+01	0.0	-3.453651e+01	-9.384684e+01	0.0	-2.225209e+01	-9.749279e+01	0.0	-9.602303e+00	-9.953791e+01	0.0	3.205158e+00	-9.994862e+01	0.0	1.595999e+01	-9.871818e+01	0.0	2.845276e+01	-9.586679e+01	0.0	4.047833e+01	-9.144126e+01	0.0	5.183926e+01	-8.551428e+01	0.0	6.234898e+01	-7.818315e+01	0.0	7.183494e+01	-6.956826e+01	0.0	8.014136e+01	-5.981105e+01	0.0	8.713187e+01	-4.907176e+01	0.0	9.269168e+01	-3.752670e+01	0.0	9.672949e+01	-2.536546e+01	0.0	9.917900e+01	-1.278772e+01	0.0	0.000000e+00	0.000000e+00	0.0	3.409752e-03	3.656993e-03	0.0	7.084646e-03	7.290795e-03	0.0	1.152217e-02	1.033077e-02	0.0	1.620576e-02	1.334060e-02	0.0	2.136292e-02	1.594520e-02	0.0	2.674794e-02	1.854666e-02	0.0	3.249764e-02	2.085377e-02	0.0	3.847372e-02	2.317127e-02	0.0	4.473994e-02	2.534119e-02	0.0	5.122425e-02	2.756702e-02	0.0	5.793559e-02	2.983527e-02	0.0	6.482527e-02	3.229558e-02	0.0	7.190249e-02	3.493285e-02	0.0	7.915098e-02	3.779091e-02	0.0	8.662829e-02	4.072526e-02	0.0	9.453363e-02	4.318553e-02	0.0	1.027710e-01	4.529342e-02	0.0	1.114603e-01	4.652411e-02	0.0	1.204321e-01	4.711892e-02	0.0	1.297039e-01	4.675647e-02	0.0	1.392087e-01	4.616099e-02	0.0	1.489056e-01	4.485777e-02	0.0	1.588524e-01	4.352096e-02	0.0	1.690339e-01	4.204914e-02	0.0	1.794597e-01	4.052225e-02	0.0	1.901493e-01	3.911347e-02	0.0	2.011233e-01	3.801379e-02	0.0	2.123371e-01	3.689007e-02	0.0	2.238282e-01	3.642441e-02	0.0	2.355644e-01	3.616764e-02	0.0	2.475226e-01	3.612508e-02	0.0	2.596856e-01	3.686997e-02	0.0	2.720615e-01	3.762790e-02	0.0	2.845660e-01	3.913413e-02	0.0	2.972305e-01	4.100670e-02	0.0	3.100564e-01	4.304093e-02	0.0	3.229003e-01	4.595032e-02	0.0	3.359085e-01	4.889691e-02	0.0	3.490485e-01	5.197220e-02	0.0	3.623137e-01	5.515269e-02	0.0	3.757096e-01	5.836267e-02	0.0	3.893990e-01	6.075190e-02	0.0	4.031950e-01	6.315973e-02	0.0	4.171802e-01	6.467633e-02	0.0	4.313500e-01	6.521197e-02	0.0	4.455864e-01	6.575012e-02	0.0	4.598248e-01	6.444300e-02	0.0	4.741003e-01	6.312778e-02	0.0	4.883548e-01	6.144232e-02	0.0	5.025750e-01	5.940206e-02	0.0	5.167882e-01	5.736571e-02	0.0	5.310307e-01	5.573161e-02	0.0	5.452361e-01	5.410176e-02	0.0	5.594332e-01	5.306632e-02	0.0	5.736055e-01	5.260013e-02	0.0	5.876972e-01	5.215230e-02	0.0	6.016986e-01	5.244702e-02	0.0	6.155919e-01	5.273946e-02	0.0	6.293621e-01	5.310282e-02	0.0	6.429966e-01	5.352935e-02	0.0	6.564854e-01	5.394597e-02	0.0	6.698231e-01	5.392370e-02	0.0	6.829925e-01	5.390171e-02	0.0	6.959749e-01	5.356852e-02	0.0	7.087606e-01	5.291917e-02	0.0	7.213492e-01	5.227983e-02	0.0	7.336874e-01	5.105584e-02	0.0	7.458121e-01	4.983748e-02	0.0	7.576786e-01	4.833447e-02	0.0	7.692814e-01	4.655146e-02	0.0	7.806448e-01	4.474839e-02	0.0	7.916827e-01	4.247296e-02	0.0	8.024846e-01	4.024619e-02	0.0	8.129886e-01	3.780695e-02	0.0	8.232363e-01	3.535482e-02	0.0	8.332369e-01	3.294274e-02	0.0	8.429894e-01	3.057311e-02	0.0	8.525083e-01	2.831277e-02	0.0	8.618214e-01	2.628460e-02	0.0	8.708878e-01	2.431016e-02	0.0	8.797432e-01	2.256068e-02	0.0	8.883599e-01	2.089623e-02	0.0	8.967387e-01	1.931590e-02	0.0	9.048877e-01	1.785251e-02	0.0	9.127955e-01	1.643242e-02	0.0	9.204669e-01	1.506727e-02	0.0	9.279032e-01	1.374659e-02	0.0	9.351048e-01	1.245448e-02	0.0	9.420737e-01	1.118095e-02	0.0	9.488177e-01	9.948051e-03	0.0	9.553351e-01	8.724508e-03	0.0	9.616361e-01	7.541594e-03	0.0	9.677212e-01	6.378078e-03	0.0	9.735981e-01	5.250611e-03	0.0	9.792692e-01	4.146593e-03	0.0	9.847411e-01	3.075236e-03	0.0	9.900177e-01	2.031036e-03	0.0	9.951031e-01	1.009597e-03	0.0	1.000000e+00	0.000000e+00	0.0	9.950043e-01	2.054674e-04	0.0	9.898200e-01	4.063754e-04	0.0	9.844406e-01	5.574222e-04	0.0	9.788618e-01	6.630391e-04	0.0	9.730794e-01	7.437319e-04	0.0	9.670882e-01	7.651216e-04	0.0	9.608841e-01	7.632906e-04	0.0	9.544627e-01	6.954174e-04	0.0	9.478194e-01	6.110133e-04	0.0	9.409514e-01	4.309909e-04	0.0	9.338527e-01	2.449246e-04	0.0	9.265234e-01	-5.524727e-05	0.0	9.189567e-01	-3.890552e-04	0.0	9.111560e-01	-8.500565e-04	0.0	9.031229e-01	-1.516163e-03	0.0	8.948430e-01	-2.202737e-03	0.0	8.863789e-01	-3.456033e-03	0.0	8.776735e-01	-4.813698e-03	0.0	8.687981e-01	-6.595720e-03	0.0	8.597881e-01	-8.977055e-03	0.0	8.505310e-01	-1.142371e-02	0.0	8.413455e-01	-1.492508e-02	0.0	8.319251e-01	-1.852896e-02	0.0	8.223607e-01	-2.245437e-02	0.0	8.126261e-01	-2.663292e-02	0.0	8.026372e-01	-3.085258e-02	0.0	7.923265e-01	-3.494228e-02	0.0	7.817886e-01	-3.912209e-02	0.0	7.707840e-01	-4.269725e-02	0.0	7.594909e-01	-4.616057e-02	0.0	7.478840e-01	-4.932376e-02	0.0	7.358717e-01	-5.180382e-02	0.0	7.236474e-01	-5.432766e-02	0.0	7.110619e-01	-5.590118e-02	0.0	6.982475e-01	-5.730852e-02	0.0	6.852167e-01	-5.830602e-02	0.0	6.719533e-01	-5.846040e-02	0.0	6.585187e-01	-5.861677e-02	0.0	6.449449e-01	-5.794343e-02	0.0	6.312269e-01	-5.710077e-02	0.0	6.173736e-01	-5.624356e-02	0.0	6.033980e-01	-5.536695e-02	0.0	5.893126e-01	-5.448345e-02	0.0	5.751075e-01	-5.446865e-02	0.0	5.608166e-01	-5.459043e-02	0.0	5.465068e-01	-5.541099e-02	0.0	5.322180e-01	-5.729177e-02	0.0	5.178916e-01	-5.917751e-02	0.0	5.036959e-01	-6.198206e-02	0.0	4.895068e-01	-6.487203e-02	0.0	4.753111e-01	-6.768896e-02	0.0	4.611173e-01	-7.039767e-02	0.0	4.469608e-01	-7.309927e-02	0.0	4.326837e-01	-7.457996e-02	0.0	4.184560e-01	-7.592733e-02	0.0	4.042844e-01	-7.653853e-02	0.0	3.901756e-01	-7.619421e-02	0.0	3.761766e-01	-7.585258e-02	0.0	3.623650e-01	-7.449265e-02	0.0	3.486911e-01	-7.310866e-02	0.0	3.351868e-01	-7.154979e-02	0.0	3.218655e-01	-6.980156e-02	0.0	3.087139e-01	-6.807560e-02	0.0	2.957254e-01	-6.650826e-02	0.0	2.829262e-01	-6.496817e-02	0.0	2.703105e-01	-6.359743e-02	0.0	2.578837e-01	-6.242281e-02	0.0	2.456725e-01	-6.126856e-02	0.0	2.336529e-01	-6.054201e-02	0.0	2.218605e-01	-5.985729e-02	0.0	2.102954e-01	-5.940626e-02	0.0	1.989596e-01	-5.927127e-02	0.0	1.878683e-01	-5.913920e-02	0.0	1.770243e-01	-5.919343e-02	0.0	1.664310e-01	-5.926735e-02	0.0	1.560929e-01	-5.917722e-02	0.0	1.460126e-01	-5.883028e-02	0.0	1.361877e-01	-5.849211e-02	0.0	1.267076e-01	-5.719585e-02	0.0	1.174923e-01	-5.580661e-02	0.0	1.086506e-01	-5.393042e-02	0.0	1.002462e-01	-5.128575e-02	0.0	9.208243e-02	-4.871677e-02	0.0	8.442129e-02	-4.551690e-02	0.0	7.703188e-02	-4.229653e-02	0.0	6.991087e-02	-3.907872e-02	0.0	6.309912e-02	-3.576731e-02	0.0	5.650170e-02	-3.256010e-02	0.0	5.002636e-02	-2.964619e-02	0.0	4.375315e-02	-2.684455e-02	0.0	3.761167e-02	-2.431217e-02	0.0	3.165429e-02	-2.191449e-02	0.0	2.594792e-02	-1.947982e-02	0.0	2.051229e-02	-1.697594e-02	0.0	1.548033e-02	-1.412575e-02	0.0	1.089900e-02	-1.096332e-02	0.0	6.664231e-03	-7.646530e-03	0.0	2.982547e-03	-3.990989e-03	0.0	1.977864e+01	7.376129e+01	0.0	2.763218e+01	6.856716e+01	0.0	3.002921e+01	7.692252e+01	0.0	8.795307e+01	2.759943e+01	0.0	8.291606e+01	3.574287e+01	0.0	8.086633e+01	2.682662e+01	0.0	7.796420e+01	-9.577008e+00	0.0	7.622279e+01	-2.274284e+01	0.0	8.813667e+01	-1.704647e+01	0.0	8.890796e+01	-5.314077e+00	0.0	2.996119e+01	3.384845e+01	0.0	2.720937e+01	2.320293e+01	0.0	3.789610e+01	2.699494e+01	0.0	7.491190e+01	1.922895e+01	0.0	7.412915e+01	3.140672e+01	0.0	6.869063e+01	-3.442325e+01	0.0	7.580335e+01	-4.275734e+01	0.0	8.128318e+01	-3.565309e+01	0.0	8.715879e+01	-2.739669e+01	0.0	5.515867e+01	2.280056e+01	0.0	4.799013e+01	2.991134e+01	0.0	4.518940e+01	1.989199e+01	0.0	6.345260e+01	-5.170339e+01	0.0	6.049712e+01	-5.934481e+01	0.0	6.865320e+01	-5.980972e+01	0.0	6.895621e+01	5.961402e+01	0.0	7.283128e+01	5.044442e+01	0.0	6.003921e+01	6.475559e+01	0.0	4.342758e+01	-6.316826e+01	0.0	4.443994e+01	-7.463034e+01	0.0	5.326694e+01	-7.191587e+01	0.0	6.798890e+01	-4.447636e+01	0.0	4.878248e+01	7.154656e+01	0.0	4.052545e+01	6.300190e+01	0.0	3.138981e+01	6.133300e+01	0.0	3.704104e+01	5.425038e+01	0.0	5.292686e+01	-5.384113e+01	0.0	5.452628e+01	-6.315400e+01	0.0	3.065978e+01	8.597422e+01	0.0	3.985927e+01	8.036614e+01	0.0	3.631609e+01	-7.216154e+01	0.0	2.606569e+01	-7.676698e+01	0.0	3.805283e+01	-8.115317e+01	0.0	5.139314e+00	4.728353e+01	0.0	-4.533178e+00	4.440531e+01	0.0	1.711897e+00	3.915418e+01	0.0	9.359603e+00	7.763154e+01	0.0	1.663470e+01	8.225718e+01	0.0	1.130435e+01	3.944349e+01	0.0	4.257828e-01	7.727243e-02	0.0	4.378158e-01	7.279107e-02	0.0	5.501079e-01	-1.098403e-01	0.0	5.294372e-01	-1.018727e-01	0.0	5.277660e-01	-1.256074e-01	0.0	4.557626e-01	-8.104522e-02	0.0	4.649927e-01	-8.885298e-02	0.0	4.668324e-01	-7.843798e-02	0.0	4.773942e-01	-9.580508e-02	0.0	4.765235e-01	-8.180697e-02	0.0	4.855279e-01	-7.496067e-02	0.0	9.381882e-01	1.728983e-02	0.0	9.324228e-01	1.777308e-02	0.0	9.210896e-01	7.993501e-02	0.0	9.276178e-01	6.106675e-02	0.0	9.433981e-01	7.723638e-02	0.0	1.408010e-01	-8.803587e-02	0.0	1.588190e-01	-9.190488e-02	0.0	1.502469e-01	-8.127417e-02	0.0	1.078735e-01	-8.561620e-02	0.0	1.187958e-01	-8.103865e-02	0.0	1.107093e-01	-7.260534e-02	0.0	8.580405e-01	-1.761043e-02	0.0	1.437816e-01	5.331048e-02	0.0	9.599362e-01	1.267082e-02	0.0	3.147683e-01	5.543492e-02	0.0	3.045888e-01	6.468397e-02	0.0	3.022295e-01	5.188825e-02	0.0	3.475698e-01	8.2117
[...]
POINT_DATA 1836

SCALARS Density double 1
LOOKUP_TABLE default
1.291589e+00	1.291672e+00	1.292072e+00	1.292253e+00	1.292181e+00	1.292130e+00	1.292118e+00	1.292096e+00	1.292066e+00	1.292037e+00	1.292017e+00	1.292012e+00	1.292022e+00	1.292055e+00	1.292103e+00	1.292149e+00	1.292191e+00	1.292222e+00	1.292246e+00	1.292263e+00	1.292275e+00	1.292284e+00	1.292290e+00	1.292296e+00	1.292301e+00	1.292307e+00	1.292313e+00	1.292320e+00	1.292329e+00	1.292342e+00	1.292358e+00	1.292379e+00	1.292404e+00	1.292437e+00	1.292473e+00	1.292511e+00	1.292551e+00	1.292579e+00	1.292580e+00	1.292562e+00	1.292529e+00	1.292489e+00	1.292448e+00	1.292406e+00	1.292360e+00	1.292337e+00	1.292365e+00	1.292274e+00	1.291922e+00	1.555275e+00	1.245610e+00	1.280230e+00	1.221155e+00	1.196108e+00	1.176545e+00	1.167846e+00	1.165809e+00	1.176888e+00	1.188246e+00	1.205814e+00	1.215658e+00	1.212370e+00	1.191615e+00	1.145079e+00	1.040019e+00	9.252789e-01	8.111548e-01	6.977895e-01	5.965402e-01	5.291954e-01	4.891940e-01	4.589215e-01	4.533166e-01	4.783882e-01	6.295323e-01	1.003380e+00	1.141997e+00	1.156190e+00	1.166214e+00	1.171211e+00	1.185190e+00	1.183459e+00	1.180664e+00	1.182314e+00	1.168325e+00	1.164164e+00	1.148196e+00	1.118798e+00	1.093422e+00	1.060601e+00	1.004439e+00	9.530391e-01	9.022915e-01	8.236599e-01	7.704274e-01	6.956833e-01	6.582466e-01	7.518434e-01	9.523125e-01	1.034952e+00	1.071943e+00	1.091006e+00	1.106556e+00	1.119861e+00	1.115652e+00	1.115359e+00	1.110452e+00	1.093277e+00	1.085477e+00	1.071984e+00	1.053555e+00	1.044478e+00	1.039683e+00	1.029354e+00	1.032835e+00	1.031079e+00	1.035037e+00	1.049086e+00	1.053927e+00	1.070690e+00	1.081687e+00	1.097548e+00	1.117464e+00	1.130937e+00	1.148141e+00	1.160453e+00	1.171397e+00	1.181832e+00	1.187756e+00	1.193142e+00	1.198016e+00	1.200596e+00	1.204191e+00	1.206710e+00	1.208610e+00	1.211549e+00	1.213654e+00	1.215815e+00	1.218736e+00	1.221150e+00	1.223561e+00	1.226654e+00	1.228915e+00	1.231399e+00	1.234722e+00	1.234561e+00	1.245856e+00	1.204669e+00	1.267663e+00	1.438389e+00	1.364442e+00	1.372534e+00	1.381088e+00	1.385137e+00	1.388155e+00	1.392076e+00	1.396308e+00	1.399685e+00	1.403879e+00	1.408408e+00	1.412815e+00	1.421040e+00	1.421702e+00	1.433328e+00	1.437061e+00	1.435416e+00	1.444388e+00	1.434465e+00	1.438031e+00	1.430562e+00	1.405476e+00	1.391377e+00	1.360477e+00	1.323806e+00	1.290584e+00	1.237941e+00	1.188248e+00	1.155483e+00	1.097467e+00	1.030680e+00	9.352540e-01	8.980030e-01	9.186172e-01	9.337559e-01	9.890873e-01	1.036921e+00	1.088469e+00	1.160500e+00	1.205731e+00	1.243327e+00	1.290836e+00	1.313698e+00	1.327461e+00	1.349644e+00	1.338637e+00	1.331515e+00	1.316568e+00	1.277590e+00	1.249430e+00	1.196113e+00	9.340708e-01	7.828658e-01	7.788589e-01	8.153679e-01	9.016539e-01	9.531967e-01	1.017606e+00	1.091505e+00	1.127438e+00	1.170386e+00	1.209530e+00	1.234368e+00	1.253863e+00	1.272243e+00	1.279837e+00	1.295158e+00	1.300885e+00	1.299515e+00	1.305067e+00	1.293137e+00	1.280046e+00	1.263634e+00	1.229459e+00	1.193817e+00	1.156086e+00	1.063020e+00	1.021056e+00	1.020210e+00	1.021549e+00	1.090044e+00	1.145203e+00	1.201140e+00	1.278943e+00	1.318054e+00	1.361323e+00	1.407241e+00	1.433344e+00	1.453301e+00	1.470540e+00	1.474757e+00	1.482154e+00	1.489138e+00	1.504128e+00	1.540098e+00	1.579520e+00	1.597088e+00	1.693711e+00	1.291944e+00	1.291957e+00	1.291987e+00	1.292153e+00	1.292178e+00	1.292085e+00	1.292025e+00	1.292257e+00	1.292122e+00	1.291841e+00	1.291935e+00	1.291966e+00	1.292068e+00	1.292044e+00	1.292160e+00	1.292350e+00	1.292330e+00	1.292309e+00	1.292276e+00	1.292116e+00	1.292107e+00	1.292079e+00	1.292379e+00	1.292405e+00	1.292386e+00	1.292105e+00	1.292123e+00	1.292086e+00	1.292484e+00	1.292497e+00	1.292460e+00	1.292342e+00	1.292050e+00	1.292013e+00	1.291960e+00	1.291982e+00	1.292416e+00	1.292436e+00	1.292006e+00	1.292027e+00	1.292533e+00	1.292575e+00	1.292530e+00	1.291709e+00	1.291726e+00	1.291549e+00	1.291945e+00	1.291965e+00	1.291674e+00	8.302969e-01	7.612341e-01	1.293320e+00	1.289711e+00	1.282718e+00	8.567976e-01	1.035615e+00	1.078422e+00	1.188296e+00	1.203036e+00	1.244635e+00	1.221147e+00	1.218606e+00	1.256944e+00	1.250108e+00	1.267710e+00	1.152224e+00	1.201675e+00	1.161970e+00	1.193446e+00	1.140491e+00	1.145948e+00	1.427597e+00	5.243972e-01	1.229099e+00	1.158408e+00	1.170292e+00	1.170017e+00	1.112189e+00	1.093862e+00	1.078982e+00	1.058963e+00	1.040963e+00	1.010473e+00	1.015770e+00	1.082332e+00	9.280246e-01	9.907270e-01	9.757922e-01	1.321838e+00	1.328014e+00	1.315673e+00	1.330004e+00	1.323333e+00	9.689816e-01	1.323675e+00	1.333958e+00	8.595946e-01	8.918480e-01	1.016526e+00	1.018116e+00	1.303662e+00	1.284806e+00	1.287985e+00	1.288900e+00	1.270339e+00	1.259973e+00	1.084059e+00	1.085945e+00	1.070016e+00	1.096395e+00	1.111455e+00	1.047480e+00	1.063949e+00	1.055659e+00	1.067650e+00	1.173958e+00	1.190247e+00	1.312144e+00	1.345079e+00	1.401694e+00	1.416394e+00	1.405624e+00	1.533112e+00	1.554899e+00	1.550524e+00	1.301885e+00	1.294299e+00	1.300613e+00	1.214148e+00	1.256736e+00	1.214949e+00	1.300919e+00	1.296109e+00	1.383057e+00	1.369184e+00	1.236476e+00	1.431872e+00	1.160456e+00	1.425901e+00	1.417023e+00	1.414131e+00	1.412472e+00	9.579536e-01	1.419523e+00	1.408900e+00	1.410532e+00	1.431077e+00	1.433922e+00	1.429078e+00	1.065935e+00	1.078523e+00	1.027811e+00	1.425917e+00	1.419346e+00	1.421829e+00	1.409305e+00	1.414824e+00	1.421130e+00	1.406292e+00	9.363024e-01	9.393388e-01	1.402270e+00	1.395750e+00	1.392916e+00	1.391869e+00	1.389202e+00	1.328681e+00	1.286718e+00	1.307100e+00	1.027538e+00	9.802612e-01	1.017288e+00	1.128699e+00	1.152996e+00	1.220789e+00	1.214360e+00	1.214427e+00	1.207134e+00	1.203683e+00	1.023412e+00	9.842718e-01	9.653370e-01	1.126796e+00	1.071221e+00	1.103568e+00	1.223656e+00	1.167534e+00	1.183704e+00	1.119815e+00	1.180981e+00	1.160803e+00	1.207177e+00	1.185084e+00	1.292585e+00	1.292558e+00	1.244453e+00	1.224437e+00	1.188533e+00	1.189812e+00	1.192874e+00	9.935690e-01	1.219382e+00	1.223954e+00	1.248383e+00	1.152856e+00	1.164842e+00	1.141777e+00	1.120061e+00	1.158561e+00	1.149397e+00	1.150390e+00	1.139341e+00	1.141890e+00	1.103981e+00	1.102018e+00	1.124094e+00	1.209123e+00	1.248420e+00	1.233612e+00	1.240482e+00	1.219789e+00	1.209924e+00	1.245933e+00	1.048106e+00	1.057711e+00	1.073764e+00	1.193749e+00	1.220999e+00	1.277687e+00	1.249979e+00	1.248480e+00	1.273280e+00	1.282594e+00	1.248580e+00	1.257394e+00	1.241213e+00	1.292561e+00	1.292548e+00	1.292602e+00	1.112251e+00	1.232136e+00	1.232867e+00	1.237191e+00	1.252983e+00	1.260177e+00	1.252113e+00	1.238191e+00	1.245273e+00	1.239497e+00	1.203308e+00	1.199790e+00	1.237763e+00	1.237395e+00	1.109820e+00	1.176290e+00	1.236803e+00	1.197321e+00	1.255105e+00	1.245708e+00	1.259648e+00	1.229941e+00	1.239027e+00	1.239496e+00	1.274449e+00	1.141653e+00	1.282443e+00	1.278654e+00	1.269402e+00	1.286007e+00	1.273023e+00	1.294352e+00	1.285011e+00	1.354726e+00	1.331558e+00	1.297368e+00	1.297493e+00	1.296216e+00	1.345956e+00	1.376453e+00	1.337850e+00	1.317063e+00	1.363225e+00	1.287621e+00	1.387380e+00	1.405637e+00	1.364853e+00	1.294694e+00	1.295716e+00	1.295934e+00	1.443803e+00	1.292508e+00	1.292494e+00	1.470363e+00	1.480372e+00	1.292639e+00	1.292619e+00	1.292672e+00	1.455522e+00	1.431479e+00	1.456146e+00	1.495010e+00	1.473297e+00	1.485878e+00	1.512549e+00	1.480771e+00	1.498013e+00	1.460685e+00	1.124979e+00	1.140420e+00	1.291401e+00	1.291648e+00	1.133968e+00	1.124514e+00	1.274425e+00	1.262999e+00	1.278231e+00	1.305443e+00	1.268837e+00	1.267292e+00	1.259063e+00	1.331836e+00	1.298690e+00	1.333531e+00	1.183500e+00	1.183169e+00	1.188938e+00	1.194617e+00	1.191640e+00	1.181121e+00	7.229976e-01	7.896532e-01	9.089283e-01	9.049975e-01	1.171349e+00	1.176065e+00	1.179139e+00	9.550689e-01	8.840623e-01	9.655820e-01	9.084909e-01	7.118505e-01	5.786789e-01	1.247512e+00	1.276617e+00	1.223227e+00	9.260446e-01	1.002422e+00	9.371319e-01	5.257854e-01	7.668552e-01	7.135208e-01	7.175438e-01	1.167744e+00	9.289356e-01	8.321354e-01	1.504645e+00	1.467358e+00	1.493820e+00	1.608629e+00	1.656456e+00	1.342257e+00	1.324164e+00	1.319802e+00	1.341944e+00	1.338738e+00	1.326154e+00	1.497257e+00	1.529841e+00	1.293060e+00	1.292838e+00	1.292978e+00	1.338631e+00	1.356716e+00	1.292423e+00	1.292484e+00	1.292436e+00	1.296410e+00	1.295159e+00	1.295540e+00	1.295454e+00	1.296834e+00	1.293995e+00	1.292455e+00	1.293135e+00	1.292342e+00	1.292329e+00	1.292277e+00	1.292419e+00	1.292399e+00	1.292377e+00	1.292382e+00	1.292347e+00	1.292354e+00	1.292339e+00	1.292328e+00	1.292312e+00	1.292307e+00	1.292288e+00	1.292297e+00	1.292302e+00	1.292272e+00	1.292252e+00	1.292253e+00	1.220650e+00	1.292101e+00	1.292159e+00	1.292187e+00	1.292179e+00	1.292247e+00	1.291954e+00	1.292212e+00	1.292149e+00	1.292221e+00	1.292242e+00	1.228103e+00	1.217609e+00	1.219791e+00	1.207216e+00	1.218615e+00	1.292184e+00	1.117629e+00	1.075597e+00	1.013023e+00	4.900786e-01	4.749723e-01	1.188516e+00	1.203577e+00	1.118167e+00	9.087476e-01	9.820278e-01	1.003379e+00	6.087182e-01	9.343641e-01	8.168089e-01	8.405449e-01	8.180664e-01	9.722289e-01	9.111283e-01	1.292095e+00	1.292134e+00	5.906473e-01	7.195970e-01	1.030007e+00	1.292103e+00	1.292056e+00	1.201710e+00	1.115790e+00	1.222486e+00	1.028510e+00	1.056507e+00	9.750704e-01	1.292026e+00	1.107298e+00	1.091693e+00	1.139415e+00	1.127238e+00	1.129394e+00	1.303715e+00	1.300642e+00	1.312526e+00	1.284225e+00	1.290947e+00	1.292884e+00	1.291752e+00	1.284538e+00	1.286959e+00	1.201692e+00	1.208810e+00	1.209662e+00	1.195443e+00	1.283011e+00	1.285315e+00	1.280476e+00	1.159963e+00	1.166733e+00	1.176805e+00	1.178038e+00	1.169341e+00	1.170059e+00	1.261265e+00	1.230610e+00	1.143829e+00	1.128747e+00	1.113662e+00	1.130696e+00	1.150380e+00	1.154952e+00	1.103997e+00	1.091012e+00	1.079637e+00	1.253724e+00	1.271393e+00	1.292741e+00	1.292434e+00	1.292190e+00	1.292317e+00	1.292316e+00	4.751875e-01	1.292164e+00	1.292018e+00	1.292778e+00	1.292705e+00	1.293120e+00	1.381333e+00	1.386653e+00	1.384562e+00	1.292819e+00	1.292851e+00	1.293266e+00	1.292375e+00	1.292360e+00	1.292476e+00	1.292565e+00	1.292552e+00	1.292229e+00	1.292488e+00	1.292594e+00	1.292830e+00	1.292000e+00	1.291991e+00	1.291983e+00	1.291836e+00	1.291726e+00	1.291865e+00	1.292033e+00	1.291902e+00	1.292348e+00	1.292015e+00	1.291802e+00	1.291760e+00	1.292825e+00	1.292784e+00	1.292267e+00	1.294252e+00	1.294499e+00	1.293671e+00	1.291585e+00	1.291973e+00	1.291136e+00	1.291718e+00	1.291888e+00	1.290105e+00	1.290924e+00	1.290428e+00	1.292551e+00	1.292440e+00	1.292459e+00	1.292691e+00	1.292562e+00	1.292609e+00	1.292475e+00	1.292324e+00	1.292348e+00	1.292335e+00	1.292301e+00	1.292308e+00	1.292286e+00	1.292239e+00	1.292267e+00	1.291988e+00	1.291921e+00	1.291806e+00	1.291880e+00	1.292674e+00	1.292703e+00	1.292762e+00	1.292143e+00	1.292119e+00	1.292073e+00	1.291948e+00	1.292008e+00	1.292037e+00	1.292063e+00	1.291846e+00	1.291950e+00	1.292328e+00	1.292602e+00	1.292662e+00	1.292481e+00	1.292411e+00	1.292425e+00	1.291995e+00	1.292190e+00	1.292345e+00	1.292469e+00	1.214160e+00	1.207538e+00	1.206658e+00	1.292977e+00	1.293740e+00	1.293328e+00	1.292696e+00	1.292671e+00	1.292016e+00	1.292673e+00	1.292651e+00	1.292618e+00	1.291847e+00	1.292018e+00	1.292078e+00	1.292071e+00	1.291982e+00	1.292052e+00	1.292387e+00	1.292415e+00	1.291948e+00	1.292615e+00	1.292715e+00	1.292230e+00	1.292139e+00	1.292598e+00	1.292337e+00	1.292379e+00	1.293262e+00	1.293783e+00	1.293834e+00	1.291914e+00	1.292503e+00	1.292759e+00	1.293198e+00	1.293448e+00	1.293846e+00	1.291430e+00	1.291383e+00	1.068966e+00	1.292198e+00	1.292169e+00	1.292324e+00	1.292396e+00	1.291967e+00	1.292288e+00	1.292277e+00	1.292343e+00	1.292366e+00	1.292340e+00	1.292208e+00	1.292156e+00	1.292599e+00	1.292004e+00	1.291923e+00	1.292619e+00	1.291979e+00	1.291940e+00	1.291892e+00	1.292615e+00	1.292132e+00	1.292401e+00	1.292344e+00	1.292357e+00	1.292423e+00	1.292408e+00	1.292462e+00	1.292540e+00	1.292648e+00	1.292347e+00	1.291903e+00	1.291896e+00	1.291801e+00	1.292143e+00	1.291900e+00	1.292508e+00	1.292469e+00	1.291934e+00	1.291957e+00	1.292944e+00	1.292455e+00	1.292505e+00	1.291602e+00	1.291816e+00	1.292596e+00	1.293358e+00	1.202980e+00	1.292410e+00	1.292422e+00	1.292388e+00	1.291864e+00	1.292117e+00	1.292222e+00	1.292382e+00	1.291990e+00	1.291897e+00	1.291266e+00	1.292561e+00	1.292526e+00	1.292542e+00	1.291982e+00	1.292634e+00	1.292040e+00	1.292383e+00	1.292263e+00	1.292087e+00	1.290566e+00	1.291510e+00	1.292545e+00	1.290637e+00	1.293198e+00	1.292822e+00	1.289169e+00	1.294006e+00	1.291755e+00	1.292335e+00	1.292614e+00	1.291167e+00	1.290764e+00	1.293329e+00	1.293883e+00	1.289721e+00	1.291761e+00	1.313376e+00	1.320987e+00	1.293628e+00	1.294887e+00	1.294235e+00	1.294203e+00	1.293266e+00	1.289007e+00	1.288562e+00	1.234857e+00	1.221925e+00	1.291661e+00	1.294981e+00	1.294422e+00	1.422412e+00	1.289996e+00	1.291656e+00	1.294427e+00	1.407156e+00	1.431346e+00	1.438027e+00	1.289117e+00	1.292021e+00	1.285859e+00	1.287112e+00	1.289224e+00	1.291374e+00	1.285637e+00	1.290004e+00	1.294010e+00	1.288670e+00	1.286698e+00	1.289934e+00	1.289569e+00	1.291834e+00	1.294298e+00	1.288212e+00	1.295059e+00	1.291442e+00	1.297913e+00	1.296178e+00	1.299251e+00	1.300706e+00	1.292341e+00	1.290184e+00	1.295416e+00	1.294079e+00	1.296044e+00	1.294150e+00	1.289798e+00	1.301048e+00	1.305102e+00	1.292646e+00	1.292428e+00	1.289723e+00	1.295738e+00	1.295807e+00	1.279308e+00	1.299405e+00	1.297335e+00	1.297225e+00	1.294839e+00	1.295937e+00	1.286955e+00	1.280041e+00	1.294471e+00	1.428148e+00	1.440046e+00	1.297516e+00	1.295748e+00	1.293935e+00	1.287943e+00	1.286650e+00	1.306380e+00	1.301878e+00	1.298893e+00	1.325155e+00	1.345173e+00	1.298128e+00	1.296232e+00	1.302121e+00	1.383170e+00	1.381810e+00	1.301092e+00	1.303504e+00	1.350615e+00	1.394469e+00	1.343203e+00	1.284257e+00	1.294088e+00	1.268643e+00	1.252115e+00	1.280092e+00	1.292701e+00	1.298211e+00	1.270349e+00	1.287745e+00	1.283762e+00	1.272875e+00	1.241551e+00	1.283506e+00	1.307559e+00	1.297756e+00	1.303486e+00	1.296696e+00	1.306616e+00	1.300541e+00	1.295761e+00	1.296559e+00	1.264163e+00	1.272585e+00	1.298504e+00	1.294314e+00	1.206390e+00	1.236398e+00	1.223998e+00	1.293495e+00	1.310222e+00	1.316205e+00	1.319690e+00	1.301556e+00	1.284793e+00	1.249333e+00	1.295693e+00	1.289786e+00	1.307191e+00	1.336391e+00	1.345420e+00	1.340413e+00	1.284665e+00	1.310774e+00	1.286096e+00	1.309949e+00	1.307951e+00	1.286817e+00	1.302231e+00	1.296130e+00	1.309193e+00	1.282047e+00	1.288724e+00	1.309270e+00	1.304572e+00	1.208651e+00	1.180242e+00	1.176772e+00	1.306258e+00	1.311375e+00	1.275870e+00	1.306083e+00	1.308267e+00	1.295628e+00	1.290537e+00	1.282723e+00	1.287764e+00	1.207059e+00	8.022456e-01	7.977418e-01	1.298756e+00	1.289823e+00	1.280852e+00	1.265120e+00	1.256811e+00	1.316246e+00	1.309058e+00	1.320963e+00	1.381574e+00	1.384859e+00	1.375614e+00	1.357793e+00	1.360913e+00	1.379334e+00	1.275023e+00	1.355542e+00	1.401528e+00	1.435356e+00	1.282849e+00	1.198500e+00	1.170322e+00	1.197721e+00	1.211727e+00	1.209930e+00	1.328582e+00	1.270803e+00	1.297620e+00	1.301286e+00	1.270337e+00	1.305302e+00	1.311822e+00	1.281651e+00	1.319065e+00	1.333282e+00	1.335684e+00	1.153033e+00	1.067655e+00	1.090577e+00	1.023136e+00	1.319271e+00	1.265452e+00	1.265484e+00	6.737316e-01	7.001536e-01	1.211507e+00	1.229190e+00	1.233023e+00	1.235655e+00	1.244860e+00	1.168342e+00	1.199833e+00	1.090787e+00	9.758924e-01	1.363322e+00	1.285666e+00	1.126345e+00	1.583480e+00	1.572186e+00	1.326874e+00	1.334578e+00	1.278788e+00	1.256884e+00	1.306536e+00	1.266581e+00	1.261936e+00	1.263440e+00	1.271475e+00	1.238944e+00	1.259165e+00	1.305291e+00	1.384571e+00	1.354274e+00	1.322690e+00	1.302488e+00	1.370191e+00	1.387038e+00	1.328893e+00	1.148858e+00	1.176990e+00	1.177479e+00	1.314193e+00	1.327477e+00	1.184632e+00	1.124434e+00	1.079023e+00	1.064017e+00	1.239437e+00	1.154503e+00	1.157863e+00	1.151735e+00	1.162251e+00	1.201671e+00	1.229542e+00	1.248795e+00	1.221132e+00	1.270480e+00	1.342929e+00	1.156429e+00	1.128721e+00	9.479035e-01	1.285531e+00	1.285211e+00	1.303161e+00	1.360241e+00	1.328806e+00	1.345528e+00	1.351453e+00	1.360129e+00	1.217151e+00	1.169708e+00	1.192500e+00	1.402448e+00	1.382457e+00	1.412645e+00	1.380962e+00	1.376162e+00	1.294220e+00	1.284902e+00	1.280437e+00	1.226842e+00	1.216106e+00	1.083356e+00	1.036468e+00	1.172849e+00	1.185430e+00	1.133857e+00	1.171327e+00	1.364312e+00	1.215413e+00	1.243451e+00	1.302782e+00	1.257577e+00	1.304959e+00	1.211141e+00	1.419606e+00	1.241664e+00	1.193945e+00	1.213596e+00	1.050546e+00	1.070930e+00	1.030561e+00	1.393673e+00	1.363402e+00	1.349028e+00	1.339453e+00	1.342573e+00	1.303886e+00	1.295814e+00	1.339981e+00	1.246514e+00	1.401377e+00	1.427737e+00	1.368690e+00	1.178140e+00	1.181470e+00	1.146225e+00	1.141832e+00	1.040479e+00	1.089477e+00	1.196844e+00	1.509413e+00	1.501991e+00	1.526041e+00	1.374898e+00	1.400177e+00	1.246694e+00	1.261340e+00	1.357281e+00	1.367499e+00	1.144244e+00	1.133656e+00	1.075352e+00	1.121454e+00	1.121005e+00	1.116136e+00	1.329884e+00	1.282242e+00	1.109136e+00	1.186404e+00	1.281932e+00	1.006315e+00	9.119732e-01	8.772799e-01	1.148691e+00	1.205457e+00	1.063439e+00	1.109250e+00	1.098690e+00	1.294661e+00	1.351386e+00	1.321490e+00	1.304685e+00	1.315308e+00	1.253491e+00	1.258775e+00	1.233085e+00	1.221198e+00	1.212965e+00	1.192752e+00	1.182695e+00	1.192003e+00	1.270110e+00	1.181554e+00	1.257163e+00	1.388563e+00	1.363653e+00	1.383229e+00	1.297211e+00	1.237416e+00	1.372354e+00	1.317168e+00	1.310130e+00	1.244197e+00	1.252321e+00	1.261552e+00	1.260225e+00	1.277035e+00	1.169062e+00	1.173566e+00	1.194458e+00	7.857227e-01	9.016957e-01	7.929276e-01	1.119148e+00	1.120076e+00	1.087067e+00	1.377026e+00	1.379477e+00	1.387903e+00	1.416389e+00	1.398082e+00	1.094863e+00	1.175301e+00	1.447258e+00	1.568363e+00	1.552416e+00	1.539809e+00	1.112069e+00	6.669084e-01	1.018680e+00	1.257584e+00	1.240514e+00	1.250131e+00	1.243792e+00	1.283278e+00	1.271297e+00	1.376582e+00	1.386690e+00	1.388347e+00	1.159274e+00	1.172803e+00	1.173697e+00	1.218911e+00	1.137605e+00	1.109747e+00	1.099708e+00	1.158227e+00	1.196741e+00	1.083063e+00	1.108626e+00	1.027838e+00	1.354534e+00	1.345894e+00	1.137235e+00	1.122760e+00	1.359428e+00	1.398294e+00	1.239091e+00	1.320079e+00	1.302527e+00	1.263617e+00	1.275105e+00	1.342862e+00	1.339148e+00	1.123443e+00	1.274392e+00	8.499529e-01	1.253481e+00	1.214716e+00	1.281007e+00	1.284832e+00	1.308784e+00	1.104965e+00	1.033094e+00	1.202009e+00	1.126154e+00	1.206678e+00	1.423778e+00	1.418124e+00	1.392494e+00	1.010048e+00	1.163064e+00	1.184621e+00	1.120170e+00	1.129361e+00	1.102720e+00	1.162860e+00	1.114418e+00	1.137823e+00	1.243736e+00	1.251208e+00	1.233684e+00	1.223556e+00	1.249800e+00	1.274131e+00	1.457624e+00	1.345618e+00	1.250723e+00	1.269505e+00	1.276342e+00	1.262538e+00	1.199239e+00	1.267080e+00	1.233509e+00	1.394791e+00	1.179906e+00	1.212777e+00	1.259801e+00	1.255635e+00	1.239885e+00	1.073693e+00	1.044179e+00	1.175484e+00	1.165539e+00	1.195089e+00	1.179965e+00	1.480538e+00	1.441492e+00	1.464933e+00	1.462842e+00	1.492433e+00	1.163110e+00	1.261564e+00	1.249647e+00	1.264862e+00	1.288445e+00	1.047133e+00	1.074454e+00	1.254325e+00	1.143338e+00	1.077265e+00	1.076218e+00	1.176485e+00	5.805533e-01	4.906697e-01	5.402906e-01	1.242647e+00	1.260270e+00	1.117838e+00	1.119706e+00	1.400543e+00	1.403344e+00	1.397800e+00	1.256917e+00	1.226089e+00	1.185413e+00	1.231471e+00	1.066766e+00	1.054797e+00	1.047942e+00	1.295037e+00	1.334168e+00	1.395980e+00	1.277476e+00	1.273774e+00	8.252686e-01	7.814667e-01	1.178954e+00	1.174652e+00	1.158461e+00	1.147288e+00	1.435083e+00	1.435304e+00	1.399367e+00	1.279730e+00	1.306466e+00	1.342702e+00	1.362279e+00	1.374898e+00	1.388732e+00	1.037202e+00	1.172658e+00	1.121822e+00	1.268731e+00	1.257639e+00	1.299227e+00	1.094023e+00	1.052275e+00	1.048353e+00	1.217387e+00	1.105548e+00	1.332401e+00	1.316631e+00	1.276608e+00	1.075917e+00	1.242680e+00	1.234165e+00	1.152838e+00	1.181208e+00	1.182406e+00	1.200240e+00	1.125547e+00	1.080110e+00	1.069889e+00	1.183403e+00	1.176120e+00	1.271885e+00	1.260362e+00	1.262327e+00	1.230907e+00	1.264665e+00	1.174927e+00	1.135343e+00	1.318484e+00	1.356426e+00	1.363908e+00	1.366532e+00	1.238714e+00	1.239198e+00	1.098778e+00	1.087515e+00	9.930538