# vtk DataFile Version 3.0
vtk output
ASCII
DATASET UNSTRUCTURED_GRID
POINTS 198 double
0.000000e+00	0.000000e+00	0.0	3.409752e-03	3.656993e-03	0.0	7.084646e-03	7.290795e-03	0.0	1.152217e-02	1.033077e-02	0.0	1.620576e-02	1.334060e-02	0.0	2.136292e-02	1.594520e-02	0.0	2.674794e-02	1.854666e-02	0.0	3.249764e-02	2.085377e-02	0.0	3.847372e-02	2.317127e-02	0.0	4.473994e-02	2.534119e-02	0.0	5.122425e-02	2.756702e-02	0.0	5.793559e-02	2.983527e-02	0.0	6.482527e-02	3.229558e-02	0.0	7.190249e-02	3.493285e-02	0.0	7.915098e-02	3.779091e-02	0.0	8.662829e-02	4.072526e-02	0.0	9.453363e-02	4.318553e-02	0.0	1.027710e-01	4.529342e-02	0.0	1.114603e-01	4.652411e-02	0.0	1.204321e-01	4.711892e-02	0.0	1.297039e-01	4.675647e-02	0.0	1.392087e-01	4.616099e-02	0.0	1.489056e-01	4.485777e-02	0.0	1.588524e-01	4.352096e-02	0.0	1.690339e-01	4.204914e-02	0.0	1.794597e-01	4.052225e-02	0.0	1.901493e-01	3.911347e-02	0.0	2.011233e-01	3.801379e-02	0.0	2.123371e-01	3.689007e-02	0.0	2.238282e-01	3.642441e-02	0.0	2.355644e-01	3.616764e-02	0.0	2.475226e-01	3.612508e-02	0.0	2.596856e-01	3.686997e-02	0.0	2.720615e-01	3.762790e-02	0.0	2.845660e-01	3.913413e-02	0.0	2.972305e-01	4.100670e-02	0.0	3.100564e-01	4.304093e-02	0.0	3.229003e-01	4.595032e-02	0.0	3.359085e-01	4.889691e-02	0.0	3.490485e-01	5.197220e-02	0.0	3.623137e-01	5.515269e-02	0.0	3.757096e-01	5.836267e-02	0.0	3.893990e-01	6.075190e-02	0.0	4.031950e-01	6.315973e-02	0.0	4.171802e-01	6.467633e-02	0.0	4.313500e-01	6.521197e-02	0.0	4.455864e-01	6.575012e-02	0.0	4.598248e-01	6.444300e-02	0.0	4.741003e-01	6.312778e-02	0.0	4.883548e-01	6.144232e-02	0.0	5.025750e-01	5.940206e-02	0.0	5.167882e-01	5.736571e-02	0.0	5.310307e-01	5.573161e-02	0.0	5.452361e-01	5.410176e-02	0.0	5.594332e-01	5.306632e-02	0.0	5.736055e-01	5.260013e-02	0.0	5.876972e-01	5.215230e-02	0.0	6.016986e-01	5.244702e-02	0.0	6.155919e-01	5.273946e-02	0.0	6.293621e-01	5.310282e-02	0.0	6.429966e-01	5.352935e-02	0.0	6.564854e-01	5.394597e-02	0.0	6.698231e-01	5.392370e-02	0.0	6.829925e-01	5.390171e-02	0.0	6.959749e-01	5.356852e-02	0.0	7.087606e-01	5.291917e-02	0.0	7.213492e-01	5.227983e-02	0.0	7.336874e-01	5.105584e-02	0.0	7.458121e-01	4.983748e-02	0.0	7.576786e-01	4.833447e-02	0.0	7.692814e-01	4.655146e-02	0.0	7.806448e-01	4.474839e-02	0.0	7.916827e-01	4.247296e-02	0.0	8.024846e-01	4.024619e-02	0.0	8.129886e-01	3.780695e-02	0.0	8.232363e-01	3.535482e-02	0.0	8.332369e-01	3.294274e-02	0.0	8.429894e-01	3.057311e-02	0.0	8.525083e-01	2.831277e-02	0.0	8.618214e-01	2.628460e-02	0.0	8.708878e-01	2.431016e-02	0.0	8.797432e-01	2.256068e-02	0.0	8.883599e-01	2.089623e-02	0.0	8.967387e-01	1.931590e-02	0.0	9.048877e-01	1.785251e-02	0.0	9.127955e-01	1.643242e-02	0.0	9.204669e-01	1.506727e-02	0.0	9.279032e-01	1.374659e-02	0.0	9.351048e-01	1.245448e-02	0.0	9.420737e-01	1.118095e-02	0.0	9.488177e-01	9.948051e-03	0.0	9.553351e-01	8.724508e-03	0.0	9.616361e-01	7.541594e-03	0.0	9.677212e-01	6.378078e-03	0.0	9.735981e-01	5.250611e-03	0.0	9.792692e-01	4.146593e-03	0.0	9.847411e-01	3.075236e-03	0.0	9.900177e-01	2.031036e-03	0.0	9.951031e-01	1.009597e-03	0.0	1.000000e+00	0.000000e+00	0.0	9.950043e-01	2.054674e-04	0.0	9.898200e-01	4.063754e-04	0.0	9.844406e-01	5.574222e-04	0.0	9.788618e-01	6.630391e-04	0.0	9.730794e-01	7.437319e-04	0.0	9.670882e-01	7.651216e-04	0.0	9.608841e-01	7.632906e-04	0.0	9.544627e-01	6.954174e-04	0.0	9.478194e-01	6.110133e-04	0.0	9.409514e-01	4.309909e-04	0.0	9.338527e-01	2.449246e-04	0.0	9.265234e-01	-5.524727e-05	0.0	9.189567e-01	-3.890552e-04	0.0	9.111560e-01	-8.500565e-04	0.0	9.031229e-01	-1.516163e-03	0.0	8.948430e-01	-2.202737e-03	0.0	8.863789e-01	-3.456033e-03	0.0	8.776735e-01	-4.813698e-03	0.0	8.687981e-01	-6.595720e-03	0.0	8.597881e-01	-8.977055e-03	0.0	8.505310e-01	-1.142371e-02	0.0	8.413455e-01	-1.492508e-02	0.0	8.319251e-01	-1.852896e-02	0.0	8.223607e-01	-2.245437e-02	0.0	8.126261e-01	-2.663292e-02	0.0	8.026372e-01	-3.085258e-02	0.0	7.923265e-01	-3.494228e-02	0.0	7.817886e-01	-3.912209e-02	0.0	7.707840e-01	-4.269725e-02	0.0	7.594909e-01	-4.616057e-02	0.0	7.478840e-01	-4.932376e-02	0.0	7.358717e-01	-5.180382e-02	0.0	7.236474e-01	-5.432766e-02	0.0	7.110619e-01	-5.590118e-02	0.0	6.982475e-01	-5.730852e-02	0.0	6.852167e-01	-5.830602e-02	0.0	6.719533e-01	-5.846040e-02	0.0	6.585187e-01	-5.861677e-02	0.0	6.449449e-01	-5.794343e-02	0.0	6.312269e-01	-5.710077e-02	0.0	6.173736e-01	-5.624356e-02	0.0	6.033980e-01	-5.536695e-02	0.0	5.893126e-01	-5.448345e-02	0.0	5.751075e-01	-5.446865e-02	0.0	5.608166e-01	-5.459043e-02	0.0	5.465068e-01	-5.541099e-02	0.0	5.322180e-01	-5.729177e-02	0.0	5.178916e-01	-5.917751e-02	0.0	5.036959e-01	-6.198206e-02	0.0	4.895068e-01	-6.487203e-02	0.0	4.753111e-01	-6.768896e-02	0.0	4.611173e-01	-7.039767e-02	0.0	4.469608e-01	-7.309927e-02	0.0	4.326837e-01	-7.457996e-02	0.0	4.184560e-01	-7.592733e-02	0.0	4.042844e-01	-7.653853e-02	0.0	3.901756e-01	-7.619421e-02	0.0	3.761766e-01	-7.585258e-02	0.0	3.623650e-01	-7.449265e-02	0.0	3.486911e-01	-7.310866e-02	0.0	3.351868e-01	-7.154979e-02	0.0	3.218655e-01	-6.980156e-02	0.0	3.087139e-01	-6.807560e-02	0.0	2.957254e-01	-6.650826e-02	0.0	2.829262e-01	-6.496817e-02	0.0	2.703105e-01	-6.359743e-02	0.0	2.578837e-01	-6.242281e-02	0.0	2.456725e-01	-6.126856e-02	0.0	2.336529e-01	-6.054201e-02	0.0	2.218605e-01	-5.985729e-02	0.0	2.102954e-01	-5.940626e-02	0.0	1.989596e-01	-5.927127e-02	0.0	1.878683e-01	-5.913920e-02	0.0	1.770243e-01	-5.919343e-02	0.0	1.664310e-01	-5.926735e-02	0.0	1.560929e-01	-5.917722e-02	0.0	1.460126e-01	-5.883028e-02	0.0	1.361877e-01	-5.849211e-02	0.0	1.267076e-01	-5.719585e-02	0.0	1.174923e-01	-5.580661e-02	0.0	1.086506e-01	-5.393042e-02	0.0	1.002462e-01	-5.128575e-02	0.0	9.208243e-02	-4.871677e-02	0.0	8.442129e-02	-4.551690e-02	0.0	7.703188e-02	-4.229653e-02	0.0	6.991087e-02	-3.907872e-02	0.0	6.309912e-02	-3.576731e-02	0.0	5.650170e-02	-3.256010e-02	0.0	5.002636e-02	-2.964619e-02	0.0	4.375315e-02	-2.684455e-02	0.0	3.761167e-02	-2.431217e-02	0.0	3.165429e-02	-2.191449e-02	0.0	2.594792e-02	-1.947982e-02	0.0	2.051229e-02	-1.697594e-02	0.0	1.548033e-02	-1.412575e-02	0.0	1.089900e-02	-1.096332e-02	0.0	6.664231e-03	-7.646530e-03	0.0	2.982547e-03	-3.990989e-03	0.0	
CELLS 198	594
2	99	100	2	100	101	2	101	102	2	102	103	2	103	104	2	104	105	2	105	106	2	106	107	2	107	108	2	108	109	2	109	110	2	110	111	2	111	112	2	112	113	2	113	114	2	114	115	2	115	116	2	116	117	2	117	118	2	118	119	2	119	120	2	120	121	2	121	122	2	122	123	2	123	124	2	124	125	2	125	126	2	126	127	2	127	128	2	128	129	2	129	130	2	130	131	2	131	132	2	132	133	2	133	134	2	134	135	2	135	136	2	136	137	2	137	138	2	138	139	2	139	140	2	140	141	2	141	142	2	142	143	2	143	144	2	144	145	2	145	146	2	146	147	2	147	148	2	148	149	2	149	150	2	150	151	2	151	152	2	152	153	2	153	154	2	154	155	2	21	22	2	22	23	2	23	24	2	24	25	2	25	26	2	26	27	2	27	28	2	28	29	2	29	30	2	30	31	2	31	32	2	32	33	2	33	34	2	34	35	2	35	36	2	36	37	2	37	38	2	38	39	2	39	40	2	40	41	2	41	42	2	42	43	2	43	44	2	44	45	2	45	46	2	46	47	2	47	48	2	48	49	2	49	50	2	50	51	2	51	52	2	52	53	2	53	54	2	54	55	2	55	56	2	56	57	2	57	58	2	58	59	2	59	60	2	60	61	2	61	62	2	62	63	2	63	64	2	64	65	2	65	66	2	66	67	2	67	68	2	68	69	2	69	70	2	70	71	2	71	72	2	72	73	2	73	74	2	74	75	2	75	76	2	76	77	2	77	78	2	78	79	2	79	80	2	80	81	2	81	82	2	82	83	2	83	84	2	84	85	2	85	86	2	86	87	2	87	88	2	88	89	2	89	90	2	90	91	2	91	92	2	92	93	2	93	94	2	94	95	2	95	96	2	96	97	2	97	98	2	98	99	2	0	1	2	1	2	2	2	3	2	3	4	2	4	5	2	5	6	2	6	7	2	7	8	2	8	9	2	9	10	2	10	11	2	11	12	2	12	13	2	13	14	2	14	15	2	15	16	2	16	17	2	17	18	2	18	19	2	19	20	2	20	21	2	155	156	2	156	157	2	157	158	2	158	159	2	159	160	2	160	161	2	161	162	2	162	163	2	163	164	2	164	165	2	165	166	2	166	167	2	167	168	2	168	169	2	169	170	2	170	171	2	171	172	2	172	173	2	173	174	2	174	175	2	175	176	2	176	177	2	177	178	2	178	179	2	179	180	2	180	181	2	181	182	2	182	183	2	183	184	2	184	185	2	185	186	2	186	187	2	187	188	2	188	189	2	189	190	2	190	191	2	191	192	2	192	193	2	193	194	2	194	195	2	195	196	2	196	197	2	197	0	
CELL_TYPES 198
3	3	3	3	3	3	3	3	3	3	3	3	3	3	3	3	3	3	3	3	3	3	3	3	3	3	3	3	3	3	3	3	3	3	3	3	3	3	3	3	3	3	3	3	3	3	3	3	3	3	3	3	3	3	3	3	3	3	3	3	3	3	3	3	3	3	3	3	3	3	3	3	3	3	3	3	3	3	3	3	3	3	3	3	3	3	3	3	3	3	3	3	3	3	3	3	3	3	3	3	3	3	3	3	3	3	3	3	3	3	3	3	3	3	3	3	3	3	3	3	3	3	3	3	3	3	3	3	3	3	3	3	3	3	3	3	3	3	3	3	3	3	3	3	3	3	3	3	3	3	3	3	3	3	3	3	3	3	3	3	3	3	3	3	3	3	3	3	3	3	3	3	3	3	3	3	3	3	3	3	3	3	3	3	3	3	3	3	3	3	3	3	3	3	3	3	3	3	
POINT_DATA 198

SCALARS Density double 1
LOOKUP_TABLE default
1.555275e+00	1.245610e+00	1.280230e+00	1.221155e+00	1.196108e+00	1.176545e+00	1.167846e+00	1.165809e+00	1.176888e+00	1.188246e+00	1.205814e+00	1.215658e+00	1.212370e+00	1.191615e+00	1.145079e+00	1.040019e+00	9.252789e-01	8.111548e-01	6.977895e-01	5.965402e-01	5.291954e-01	4.891940e-01	4.589215e-01	4.533166e-01	4.783882e-01	6.295323e-01	1.003380e+00	1.141997e+00	1.156190e+00	1.166214e+00	1.171211e+00	1.185190e+00	1.183459e+00	1.180664e+00	1.182314e+00	1.168325e+00	1.164164e+00	1.148196e+00	1.118798e+00	1.093422e+00	1.060601e+00	1.004439e+00	9.530391e-01	9.022915e-01	8.236599e-01	7.704274e-01	6.956833e-01	6.582466e-01	7.518434e-01	9.523125e-01	1.034952e+00	1.071943e+00	1.091006e+00	1.106556e+00	1.119861e+00	1.115652e+00	1.115359e+00	1.110452e+00	1.093277e+00	1.085477e+00	1.071984e+00	1.053555e+00	1.044478e+00	1.039683e+00	1.029354e+00	1.032835e+00	1.031079e+00	1.035037e+00	1.049086e+00	1.053927e+00	1.070690e+00	1.081687e+00	1.097548e+00	1.117464e+00	1.130937e+00	1.148141e+00	1.160453e+00	1.171397e+00	1.181832e+00	1.187756e+00	1.193142e+00	1.198016e+00	1.200596e+00	1.204191e+00	1.206710e+00	1.208610e+00	1.211549e+00	1.213654e+00	1.215815e+00	1.218736e+00	1.221150e+00	1.223561e+00	1.226654e+00	1.228915e+00	1.231399e+00	1.234722e+00	1.234561e+00	1.245856e+00	1.204669e+00	1.267663e+00	1.438389e+00	1.364442e+00	1.372534e+00	1.381088e+00	1.385137e+00	1.388155e+00	1.392076e+00	1.396308e+00	1.399685e+00	1.403879e+00	1.408408e+00	1.412815e+00	1.421040e+00	1.421702e+00	1.433328e+00	1.437061e+00	1.435416e+00	1.444388e+00	1.434465e+00	1.438031e+00	1.430562e+00	1.405476e+00	1.391377e+00	1.360477e+00	1.323806e+00	1.290584e+00	1.237941e+00	1.188248e+00	1.155483e+00	1.097467e+00	1.030680e+00	9.352540e-01	8.980030e-01	9.186172e-01	9.337559e-01	9.890873e-01	1.036921e+00	1.088469e+00	1.160500e+00	1.205731e+00	1.243327e+00	1.290836e+00	1.313698e+00	1.327461e+00	1.349644e+00	1.338637e+00	1.331515e+00	1.316568e+00	1.277590e+00	1.249430e+00	1.196113e+00	9.340708e-01	7.828658e-01	7.788589e-01	8.153679e-01	9.016539e-01	9.531967e-01	1.017606e+00	1.091505e+00	1.127438e+00	1.170386e+00	1.209530e+00	1.234368e+00	1.253863e+00	1.272243e+00	1.279837e+00	1.295158e+00	1.300885e+00	1.299515e+00	1.305067e+00	1.293137e+00	1.280046e+00	1.263634e+00	1.229459e+00	1.193817e+00	1.156086e+00	1.063020e+00	1.021056e+00	1.020210e+00	1.021549e+00	1.090044e+00	1.145203e+00	1.201140e+00	1.278943e+00	1.318054e+00	1.361323e+00	1.407241e+00	1.433344e+00	1.453301e+00	1.470540e+00	1.474757e+00	1.482154e+00	1.489138e+00	1.504128e+00	1.540098e+00	1.579520e+00	1.597088e+00	1.693711e+00	
VECTORS Momentum double
2.593765e+01	1.860643e+02	0.0	1.718773e+02	1.687043e+02	0.0	1.980414e+02	1.631874e+02	0.0	2.306343e+02	1.523161e+02	0.0	2.498300e+02	1.420424e+02	0.0	2.652062e+02	1.305835e+02	0.0	2.738726e+02	1.206195e+02	0.0	2.802708e+02	1.102307e+02	0.0	2.842238e+02	1.036158e+02	0.0	2.841921e+02	9.765825e+01	0.0	2.828873e+02	9.622365e+01	0.0	2.824958e+02	9.819225e+01	0.0	2.827656e+02	1.031831e+02	0.0	2.858664e+02	1.098640e+02	0.0	2.943904e+02	1.164199e+02	0.0	3.019572e+02	1.067133e+02	0.0	3.056834e+02	8.706747e+01	0.0	3.014690e+02	6.034984e+01	0.0	2.868588e+02	3.120197e+01	0.0	2.638095e+02	4.568668e+00	0.0	2.442874e+02	-1.209059e+01	0.0	2.326728e+02	-2.324056e+01	0.0	2.211205e+02	-3.038562e+01	0.0	2.180529e+02	-3.274337e+01	0.0	2.212108e+02	-3.052427e+01	0.0	2.323956e+02	-3.183018e+01	0.0	2.224558e+02	-2.266437e+01	0.0	2.067319e+02	-1.855339e+01	0.0	1.959397e+02	-1.312681e+01	0.0	1.905517e+02	-6.128375e+00	0.0	1.836067e+02	-2.444814e+00	0.0	1.796318e+02	5.636473e+00	0.0	1.783909e+02	1.107893e+01	0.0	1.768658e+02	1.612032e+01	0.0	1.797190e+02	2.438616e+01	0.0	1.825786e+02	2.789811e+01	0.0	1.866078e+02	3.596440e+01	0.0	1.955338e+02	4.442893e+01	0.0	2.057400e+02	4.730739e+01	0.0	2.155500e+02	5.093140e+01	0.0	2.279048e+02	5.503493e+01	0.0	2.408553e+02	4.991574e+01	0.0	2.504840e+02	4.340366e+01	0.0	2.609360e+02	3.758522e+01	0.0	2.613827e+02	1.964321e+01	0.0	2.625603e+02	1.032817e+01	0.0	2.575640e+02	-6.690420e+00	0.0	2.436450e+02	-2.103814e+01	0.0	2.440371e+02	-2.694994e+01	0.0	2.374109e+02	-3.020911e+01	0.0	2.270492e+02	-3.251069e+01	0.0	2.173422e+02	-2.808117e+01	0.0	2.085093e+02	-2.366690e+01	0.0	2.002897e+02	-1.872573e+01	0.0	1.980133e+02	-1.022564e+01	0.0	1.977057e+02	-6.379325e+00	0.0	1.983088e+02	-1.104553e+00	0.0	2.028015e+02	4.430160e+00	0.0	2.068317e+02	4.868376e+00	0.0	2.116652e+02	6.099979e+00	0.0	2.177790e+02	6.727777e+00	0.0	2.225271e+02	3.142930e+00	0.0	2.252100e+02	-4.589444e-01	0.0	2.281968e+02	-3.009837e+00	0.0	2.287531e+02	-8.871674e+00	0.0	2.298246e+02	-1.171355e+01	0.0	2.293177e+02	-1.700213e+01	0.0	2.256155e+02	-2.267016e+01	0.0	2.237609e+02	-2.541188e+01	0.0	2.193833e+02	-3.082417e+01	0.0	2.153493e+02	-3.356475e+01	0.0	2.095681e+02	-3.811645e+01	0.0	2.015876e+02	-4.162665e+01	0.0	1.941131e+02	-4.245103e+01	0.0	1.855151e+02	-4.370251e+01	0.0	1.774227e+02	-4.257756e+01	0.0	1.701194e+02	-4.112156e+01	0.0	1.629612e+02	-3.913370e+01	0.0	1.577591e+02	-3.589904e+01	0.0	1.532469e+02	-3.335275e+01	0.0	1.492905e+02	-3.102601e+01	0.0	1.464516e+02	-2.861114e+01	0.0	1.439697e+02	-2.749834e+01	0.0	1.412060e+02	-2.597049e+01	0.0	1.386672e+02	-2.486842e+01	0.0	1.362590e+02	-2.435665e+01	0.0	1.337291e+02	-2.372214e+01	0.0	1.313249e+02	-2.342622e+01	0.0	1.286997e+02	-2.331537e+01	0.0	1.260788e+02	-2.303992e+01	0.0	1.233247e+02	-2.284741e+01	0.0	1.202753e+02	-2.259681e+01	0.0	1.176536e+02	-2.227921e+01	0.0	1.148415e+02	-2.199604e+01	0.0	1.116129e+02	-2.157734e+01	0.0	1.091740e+02	-2.128648e+01	0.0	1.049261e+02	-2.086278e+01	0.0	1.048959e+02	-2.056353e+01	0.0	9.056751e+01	-2.413685e+01	0.0	1.596536e+02	3.108811e+00	0.0	2.887829e+02	-1.920515e+01	0.0	2.472704e+02	-7.521674e+00	0.0	2.428536e+02	-5.169554e+00	0.0	2.430133e+02	-3.963206e+00	0.0	2.416069e+02	-2.166384e+00	0.0	2.392105e+02	-3.220241e-01	0.0	2.374717e+02	1.287799e+00	0.0	2.354908e+02	2.708118e+00	0.0	2.335085e+02	4.574884e+00	0.0	2.313681e+02	6.053898e+00	0.0	2.287961e+02	7.710493e+00	0.0	2.259246e+02	9.575265e+00	0.0	2.226260e+02	1.143463e+01	0.0	2.191424e+02	1.574575e+01	0.0	2.157953e+02	1.774829e+01	0.0	2.104248e+02	2.431181e+01	0.0	2.087095e+02	3.183312e+01	0.0	2.072584e+02	3.686859e+01	0.0	2.050481e+02	4.791162e+01	0.0	2.061361e+02	5.435575e+01	0.0	2.047493e+02	6.592253e+01	0.0	2.100050e+02	8.025026e+01	0.0	2.214738e+02	8.748079e+01	0.0	2.288925e+02	9.604569e+01	0.0	2.414251e+02	1.027321e+02	0.0	2.549640e+02	1.041975e+02	0.0	2.663123e+02	1.057567e+02	0.0	2.807206e+02	1.008505e+02	0.0	2.913467e+02	9.194465e+01	0.0	2.970479e+02	8.576196e+01	0.0	3.062560e+02	7.300801e+01	0.0	3.072432e+02	6.405945e+01	0.0	3.117968e+02	5.092941e+01	0.0	3.181611e+02	3.702737e+01	0.0	3.168079e+02	2.961148e+01	0.0	3.224473e+02	1.427447e+01	0.0	3.195882e+02	3.982932e+00	0.0	3.172971e+02	-6.209870e+00	0.0	3.132515e+02	-1.780199e+01	0.0	3.035736e+02	-1.879257e+01	0.0	2.959264e+02	-1.839883e+01	0.0	2.871973e+02	-1.810645e+01	0.0	2.764573e+02	-8.554641e+00	0.0	2.708785e+02	1.044236e+00	0.0	2.660195e+02	8.574606e+00	0.0	2.623566e+02	2.502416e+01	0.0	2.661703e+02	3.501452e+01	0.0	2.681830e+02	4.392813e+01	0.0	2.739297e+02	5.497597e+01	0.0	2.845294e+02	5.711096e+01	0.0	2.898646e+02	5.625709e+01	0.0	2.905561e+02	5.690168e+01	0.0	2.977375e+02	4.312666e+01	0.0	3.077055e+02	3.015721e+01	0.0	3.127445e+02	2.080569e+01	0.0	3.266244e+02	2.457218e+00	0.0	3.286252e+02	-8.143328e+00	0.0	3.316748e+02	-2.105193e+01	0.0	3.324072e+02	-3.368888e+01	0.0	3.271142e+02	-3.531178e+01	0.0	3.248233e+02	-4.030520e+01	0.0	3.201706e+02	-4.218755e+01	0.0	3.155265e+02	-3.973453e+01	0.0	3.123069e+02	-3.762321e+01	0.0	3.093456e+02	-3.542147e+01	0.0	3.063632e+02	-3.098922e+01	0.0	3.048346e+02	-2.884483e+01	0.0	3.025480e+02	-2.343010e+01	0.0	3.022885e+02	-1.787292e+01	0.0	3.027146e+02	-1.484100e+01	0.0	3.027710e+02	-7.642556e+00	0.0	3.066006e+02	-3.665870e+00	0.0	3.098244e+02	-1.109995e+00	0.0	3.136067e+02	1.928534e+00	0.0	3.198982e+02	-6.527156e-01	0.0	3.247972e+02	-7.539729e+00	0.0	3.251845e+02	-1.091862e+01	0.0	3.298054e+02	-2.820910e+01	0.0	3.290662e+02	-4.755387e+01	0.0	3.237174e+02	-5.981015e+01	0.0	3.248608e+02	-8.608253e+01	0.0	3.131817e+02	-9.865556e+01	0.0	3.027173e+02	-1.107380e+02	0.0	2.892447e+02	-1.239435e+02	0.0	2.739762e+02	-1.213454e+02	0.0	2.613715e+02	-1.227395e+02	0.0	2.472835e+02	-1.205718e+02	0.0	2.367486e+02	-1.107809e+02	0.0	2.293734e+02	-1.027537e+02	0.0	2.232422e+02	-9.601496e+01	0.0	2.192949e+02	-8.925852e+01	0.0	2.147765e+02	-8.897424e+01	0.0	2.062967e+02	-9.127796e+01	0.0	1.895612e+02	-9.666793e+01	0.0	1.594968e+02	-1.000098e+02	0.0	1.198439e+02	-8.813151e+01	0.0	7.523133e+01	-6.389060e+01	0.0	1.026978e+00	-3.405171e+00	0.0	
SCALARS Energy double 1
LOOKUP_TABLE default
3.405199e+05	2.767763e+05	2.849798e+05	2.737574e+05	2.692532e+05	2.657571e+05	2.642149e+05	2.639328e+05	2.663299e+05	2.685405e+05	2.720717e+05	2.741397e+05	2.735915e+05	2.696586e+05	2.608258e+05	2.396278e+05	2.162540e+05	1.925551e+05	1.683692e+05	1.460376e+05	1.309109e+05	1.220540e+05	1.150297e+05	1.136283e+05	1.186347e+05	1.490065e+05	2.247126e+05	2.530437e+05	2.554972e+05	2.573586e+05	2.581025e+05	2.609144e+05	2.605020e+05	2.598561e+05	2.603720e+05	2.575351e+05	2.568935e+05	2.540013e+05	2.483141e+05	2.435296e+05	2.374069e+05	2.264286e+05	2.163640e+05	2.066754e+05	1.905362e+05	1.798781e+05	1.644982e+05	1.557273e+05	1.744992e+05	2.151114e+05	2.317021e+05	2.388627e+05	2.423626e+05	2.451929e+05	2.478690e+05	2.469515e+05	2.469149e+05	2.461072e+05	2.426818e+05	2.412986e+05	2.387977e+05	2.351907e+05	2.334434e+05	2.326229e+05	2.304996e+05	2.313062e+05	2.309266e+05	2.315555e+05	2.344115e+05	2.352080e+05	2.385286e+05	2.405676e+05	2.435302e+05	2.473816e+05	2.498446e+05	2.531290e+05	2.554276e+05	2.574556e+05	2.594571e+05	2.605362e+05	2.615295e+05	2.624579e+05	2.629184e+05	2.635873e+05	2.640378e+05	2.643649e+05	2.649124e+05	2.652885e+05	2.656727e+05	2.662216e+05	2.666598e+05	2.670910e+05	2.676830e+05	2.680929e+05	2.685415e+05	2.691941e+05	2.690522e+05	2.714874e+05	2.622873e+05	2.777799e+05	3.202495e+05	3.023016e+05	3.037902e+05	3.056140e+05	3.064027e+05	3.069251e+05	3.076740e+05	3.084790e+05	3.091042e+05	3.098973e+05	3.107443e+05	3.115545e+05	3.131635e+05	3.131620e+05	3.155054e+05	3.161027e+05	3.157215e+05	3.176141e+05	3.154949e+05	3.163673e+05	3.148533e+05	3.099299e+05	3.075570e+05	3.015043e+05	2.945104e+05	2.882745e+05	2.779360e+05	2.683815e+05	2.621185e+05	2.504409e+05	2.372530e+05	2.178658e+05	2.106199e+05	2.151673e+05	2.179846e+05	2.295407e+05	2.389411e+05	2.492649e+05	2.637853e+05	2.724366e+05	2.797297e+05	2.890964e+05	2.932087e+05	2.957709e+05	3.001832e+05	2.977101e+05	2.964860e+05	2.935255e+05	2.857877e+05	2.805818e+05	2.698031e+05	2.159702e+05	1.862887e+05	1.864373e+05	1.940339e+05	2.124372e+05	2.229063e+05	2.361846e+05	2.513148e+05	2.582135e+05	2.668877e+05	2.746173e+05	2.793908e+05	2.831876e+05	2.867859e+05	2.881302e+05	2.912103e+05	2.922232e+05	2.918943e+05	2.930728e+05	2.905643e+05	2.880844e+05	2.848848e+05	2.780496e+05	2.711380e+05	2.637525e+05	2.447542e+05	2.367566e+05	2.367230e+05	2.366889e+05	2.511899e+05	2.617990e+05	2.728376e+05	2.884136e+05	2.955660e+05	3.039676e+05	3.128588e+05	3.176456e+05	3.213736e+05	3.246394e+05	3.252472e+05	3.266304e+05	3.278177e+05	3.304867e+05	3.372743e+05	3.445376e+05	3.472171e+05	3.673006e+05	
SCALARS Pressure double 1
LOOKUP_TABLE default
1.316695e+05	1.013973e+05	1.037046e+05	9.699146e+04	9.389130e+04	9.144808e+04	9.034913e+04	9.001268e+04	9.097918e+04	9.221696e+04	9.401973e+04	9.494029e+04	9.449015e+04	9.212185e+04	8.682596e+04	7.612728e+04	6.466537e+04	5.371561e+04	4.348329e+04	3.507502e+04	2.975552e+04	2.646780e+04	2.430118e+04	2.400089e+04	2.660640e+04	4.212269e+04	7.991868e+04	9.367238e+04	9.552790e+04	9.671001e+04	9.748329e+04	9.891524e+04	9.880206e+04	9.859945e+04	9.858452e+04	9.717434e+04	9.655278e+04	9.459692e+04	9.135872e+04	8.843893e+04	8.459703e+04	7.852435e+04	7.298350e+04	6.726489e+04	5.953118e+04	5.402755e+04	4.671476e+04	4.411977e+04	5.376431e+04	7.401560e+04	8.251453e+04	8.658450e+04	8.887243e+04	9.076317e+04	9.212640e+04	9.176619e+04	9.171396e+04	9.103183e+04	8.924250e+04	8.825773e+04	8.666203e+04	8.467416e+04	8.366537e+04	8.303019e+04	8.201741e+04	8.226788e+04	8.211426e+04	8.268706e+04	8.409626e+04	8.476963e+04	8.653831e+04	8.783798e+04	8.969116e+04	9.188628e+04	9.351382e+04	9.545238e+04	9.689179e+04	9.818664e+04	9.935299e+04	1.000727e+05	1.007145e+05	1.012659e+05	1.015886e+05	1.020113e+05	1.023257e+05	1.025754e+05	1.029199e+05	1.031829e+05	1.034550e+05	1.037930e+05	1.040875e+05	1.043884e+05	1.047353e+05	1.050121e+05	1.053177e+05	1.056736e+05	1.057668e+05	1.067607e+05	1.034564e+05	1.070890e+05	1.164528e+05	1.119501e+05	1.129182e+05	1.136913e+05	1.141318e+05	1.145258e+05	1.149674e+05	1.154473e+05	1.158475e+05	1.163275e+05	1.168557e+05	1.173833e+05	1.182715e+05	1.184742e+05	1.196604e+05	1.201964e+05	1.200781e+05	1.209094e+05	1.200158e+05	1.202263e+05	1.194728e+05	1.167798e+05	1.148721e+05	1.115436e+05	1.074039e+05	1.035533e+05	9.790936e+04	9.237678e+04	8.869196e+04	8.275576e+04	7.566672e+04	6.608210e+04	6.201840e+04	6.372954e+04	6.550848e+04	7.075122e+04	7.587342e+04	8.119995e+04	8.854843e+04	9.362959e+04	9.775063e+04	1.028081e+05	1.056367e+05	1.072532e+05	1.095757e+05	1.087068e+05	1.077687e+05	1.061914e+05	1.020952e+05	9.875161e+04	9.334296e+04	6.761849e+04	5.139337e+04	5.002822e+04	5.351597e+04	6.130956e+04	6.648915e+04	7.276576e+04	8.007171e+04	8.408248e+04	8.844752e+04	9.260236e+04	9.536968e+04	9.749162e+04	9.947366e+04	1.004348e+05	1.020062e+05	1.027321e+05	1.026451e+05	1.031522e+05	1.020387e+05	1.005441e+05	9.876087e+04	9.522048e+04	9.131098e+04	8.724109e+04	7.798403e+04	7.324106e+04	7.301798e+04	7.345873e+04	7.975298e+04	8.589051e+04	9.183473e+04	9.988010e+04	1.046021e+05	1.093372e+05	1.143868e+05	1.175250e+05	1.198561e+05	1.218239e+05	1.224966e+05	1.233593e+05	1.242922e+05	1.261742e+05	1.303073e+05	1.350129e+05	1.376669e+05	1.469187e+05	
SCALARS Temperature double 1
LOOKUP_TABLE default
2.949228e+02	2.835794e+02	2.821892e+02	2.766898e+02	2.734547e+02	2.707674e+02	2.695062e+02	2.689718e+02	2.693006e+02	2.703553e+02	2.716245e+02	2.720630e+02	2.715075e+02	2.693128e+02	2.641464e+02	2.549937e+02	2.434610e+02	2.306891e+02	2.170843e+02	2.048276e+02	1.958762e+02	1.884808e+02	1.844673e+02	1.844404e+02	1.937474e+02	2.330926e+02	2.774682e+02	2.857440e+02	2.878269e+02	2.888840e+02	2.899514e+02	2.907407e+02	2.908327e+02	2.909234e+02	2.904734e+02	2.897466e+02	2.889222e+02	2.870062e+02	2.844649e+02	2.817643e+02	2.778647e+02	2.723397e+02	2.667745e+02	2.597000e+02	2.517833e+02	2.442946e+02	2.339230e+02	2.334936e+02	2.491134e+02	2.707535e+02	2.777414e+02	2.813837e+02	2.837725e+02	2.857371e+02	2.865830e+02	2.865393e+02	2.864514e+02	2.855773e+02	2.843623e+02	2.832452e+02	2.816249e+02	2.799780e+02	2.790467e+02	2.782053e+02	2.775695e+02	2.774787e+02	2.774323e+02	2.782992e+02	2.792518e+02	2.801948e+02	2.815626e+02	2.828859e+02	2.846796e+02	2.864490e+02	2.880498e+02	2.896156e+02	2.908639e+02	2.919971e+02	2.928571e+02	2.935071e+02	2.940561e+02	2.944631e+02	2.947667e+02	2.951095e+02	2.954009e+02	2.956564e+02	2.959299e+02	2.961716e+02	2.964245e+02	2.966801e+02	2.969340e+02	2.972054e+02	2.974415e+02	2.976785e+02	2.979426e+02	2.981453e+02	2.984470e+02	2.985205e+02	2.991713e+02	2.942872e+02	2.820356e+02	2.858245e+02	2.865966e+02	2.867717e+02	2.870413e+02	2.874059e+02	2.877015e+02	2.880268e+02	2.883278e+02	2.886577e+02	2.890358e+02	2.894352e+02	2.899373e+02	2.902988e+02	2.908272e+02	2.913712e+02	2.914181e+02	2.916129e+02	2.914601e+02	2.912470e+02	2.909327e+02	2.894507e+02	2.876074e+02	2.856168e+02	2.826350e+02	2.795169e+02	2.755208e+02	2.708233e+02	2.673937e+02	2.626861e+02	2.557475e+02	2.461414e+02	2.405875e+02	2.416777e+02	2.443963e+02	2.491895e+02	2.549026e+02	2.598783e+02	2.658068e+02	2.705160e+02	2.738828e+02	2.774511e+02	2.801236e+02	2.814614e+02	2.828299e+02	2.828943e+02	2.819533e+02	2.809805e+02	2.783839e+02	2.753357e+02	2.718565e+02	2.521831e+02	2.286916e+02	2.237621e+02	2.286442e+02	2.368747e+02	2.429957e+02	2.491023e+02	2.555546e+02	2.598024e+02	2.632612e+02	2.667077e+02	2.691510e+02	2.708617e+02	2.723757e+02	2.733757e+02	2.743685e+02	2.751045e+02	2.751613e+02	2.753443e+02	2.748848e+02	2.736285e+02	2.722664e+02	2.698029e+02	2.664499e+02	2.628823e+02	2.555611e+02	2.498824e+02	2.493277e+02	2.505038e+02	2.548786e+02	2.612721e+02	2.663444e+02	2.720558e+02	2.764633e+02	2.797930e+02	2.831638e+02	2.856341e+02	2.872994e+02	2.885932e+02	2.893570e+02	2.899405e+02	2.907632e+02	2.922241e+02	2.947479e+02	2.977697e+02	3.002833e+02	3.021817e+02	
SCALARS Mach double 1
LOOKUP_TABLE default
3.508587e-01	5.727388e-01	5.952130e-01	6.787485e-01	7.247776e-01	7.616690e-01	7.786221e-01	7.857424e-01	7.813653e-01	7.672321e-01	7.500213e-01	7.440197e-01	7.516173e-01	7.812034e-01	8.485338e-01	9.619370e-01	1.098181e+00	1.244826e+00	1.400022e+00	1.541604e+00	1.647314e+00	1.736752e+00	1.786259e+00	1.786592e+00	1.672842e+00	1.217398e+00	6.673677e-01	5.363486e-01	4.994030e-01	4.797869e-01	4.592829e-01	4.436162e-01	4.417585e-01	4.399222e-01	4.489739e-01	4.632762e-01	4.790664e-01	5.142123e-01	5.580735e-01	6.019571e-01	6.615202e-01	7.402184e-01	8.146524e-01	9.044019e-01	1.000437e+00	1.088497e+00	1.207910e+00	1.212818e+00	1.032080e+00	7.618562e-01	6.633423e-01	6.079520e-01	5.695661e-01	5.364668e-01	5.217166e-01	5.224868e-01	5.240340e-01	5.392177e-01	5.597865e-01	5.782014e-01	6.041582e-01	6.297354e-01	6.438758e-01	6.564698e-01	6.658771e-01	6.672139e-01	6.678959e-01	6.550727e-01	6.407801e-01	6.264106e-01	6.051396e-01	5.840317e-01	5.544729e-01	5.240748e-01	4.953203e-01	4.658143e-01	4.411270e-01	4.176539e-01	3.990478e-01	3.844639e-01	3.717560e-01	3.620768e-01	3.547048e-01	3.462111e-01	3.388364e-01	3.322510e-01	3.250646e-01	3.185912e-01	3.116853e-01	3.045596e-01	2.973241e-01	2.894050e-01	2.823473e-01	2.750917e-01	2.667890e-01	2.602492e-01	2.502120e-01	2.477101e-01	2.243860e-01	3.662882e-01	5.976579e-01	5.349574e-01	5.214773e-01	5.183816e-01	5.135858e-01	5.070445e-01	5.016900e-01	4.957424e-01	4.901888e-01	4.840407e-01	4.769160e-01	4.692924e-01	4.595587e-01	4.524436e-01	4.418693e-01	4.307536e-01	4.297849e-01	4.257366e-01	4.289145e-01	4.333144e-01	4.397326e-01	4.689943e-01	5.033980e-01	5.385385e-01	5.880770e-01	6.367634e-01	6.956058e-01	7.609124e-01	8.065632e-01	8.670681e-01	9.528150e-01	1.066969e+00	1.131426e+00	1.118837e+00	1.087315e+00	1.031183e+00	9.630364e-01	9.021926e-01	8.272111e-01	7.650658e-01	7.187949e-01	6.676188e-01	6.275042e-01	6.067330e-01	5.849357e-01	5.838953e-01	5.989655e-01	6.142573e-01	6.538097e-01	6.982517e-01	7.468500e-01	9.956705e-01	1.267597e+00	1.323763e+00	1.268137e+00	1.174121e+00	1.103579e+00	1.032210e+00	9.551531e-01	9.031337e-01	8.597922e-01	8.155222e-01	7.833591e-01	7.603922e-01	7.397234e-01	7.258784e-01	7.119692e-01	7.015460e-01	7.007380e-01	6.981278e-01	7.046667e-01	7.223524e-01	7.412271e-01	7.746531e-01	8.188763e-01	8.645889e-01	9.550741e-01	1.022998e+00	1.029551e+00	1.015639e+00	9.633265e-01	8.848368e-01	8.202472e-01	7.441185e-01	6.820362e-01	6.325610e-01	5.795268e-01	5.382412e-01	5.089618e-01	4.852474e-01	4.707930e-01	4.594967e-01	4.431622e-01	4.128122e-01	3.551663e-01	2.722536e-01	1.778998e-01	6.025884e-03	
SCALARS Pressure_Coefficient double 1
LOOKUP_TABLE default