# vtk DataFile Version 3.0
vtk output
ASCII
DATASET UNSTRUCTURED_GRID
POINTS 1834 double
1.000000e+02	0.000000e+00	0.0	9.917900e+01	1.278772e+01	0.0	9.672949e+01	2.536546e+01	0.0	9.269168e+01	3.752670e+01	0.0	8.713187e+01	4.907176e+01	0.0	8.014136e+01	5.981105e+01	0.0	7.183494e+01	6.956826e+01	0.0	6.234898e+01	7.818315e+01	0.0	5.183926e+01	8.551428e+01	0.0	4.047833e+01	9.144126e+01	0.0	2.845276e+01	9.586679e+01	0.0	1.595999e+01	9.871818e+01	0.0	3.205158e+00	9.994862e+01	0.0	-9.602303e+00	9.953791e+01	0.0	-2.225209e+01	9.749279e+01	0.0	-3.453651e+01	9.384684e+01	0.0	-4.625383e+01	8.865993e+01	0.0	-5.721167e+01	8.201723e+01	0.0	-6.723009e+01	7.402780e+01	0.0	-7.614460e+01	6.482284e+01	0.0	-8.380881e+01	5.455349e+01	0.0	-9.009689e+01	4.338837e+01	0.0	-9.490557e+01	3.151082e+01	0.0	-9.815592e+01	1.911586e+01	0.0	-9.979454e+01	6.407022e+00	0.0	-9.979454e+01	-6.407022e+00	0.0	-9.815592e+01	-1.911586e+01	0.0	-9.490557e+01	-3.151082e+01	0.0	-9.009689e+01	-4.338837e+01	0.0	-8.380881e+01	-5.455349e+01	0.0	-7.614460e+01	-6.482284e+01	0.0	-6.723009e+01	-7.402780e+01	0.0	-5.721167e+01	-8.201723e+01	0.0	-4.625383e+01	-8.865993e+01	0.0	-3.453651e+01	-9.384684e+01	0.0	-2.225209e+01	-9.749279e+01	0.0	-9.602303e+00	-9.953791e+01	0.0	3.205158e+00	-9.994862e+01	0.0	1.595999e+01	-9.871818e+01	0.0	2.845276e+01	-9.586679e+01	0.0	4.047833e+01	-9.144126e+01	0.0	5.183926e+01	-8.551428e+01	0.0	6.234898e+01	-7.818315e+01	0.0	7.183494e+01	-6.956826e+01	0.0	8.014136e+01	-5.981105e+01	0.0	8.713187e+01	-4.907176e+01	0.0	9.269168e+01	-3.752670e+01	0.0	9.672949e+01	-2.536546e+01	0.0	9.917900e+01	-1.278772e+01	0.0	0.000000e+00	0.000000e+00	0.0	3.307550e-03	3.749682e-03	0.0	6.851584e-03	7.511902e-03	0.0	1.130435e-02	1.053054e-02	0.0	1.599195e-02	1.353571e-02	0.0	2.119370e-02	1.605295e-02	0.0	2.661589e-02	1.858186e-02	0.0	3.239046e-02	2.083152e-02	0.0	3.840082e-02	2.306122e-02	0.0	4.473897e-02	2.502075e-02	0.0	5.135516e-02	2.679877e-02	0.0	5.830331e-02	2.820024e-02	0.0	6.556002e-02	2.904204e-02	0.0	7.310176e-02	2.952926e-02	0.0	8.088313e-02	2.906148e-02	0.0	8.890266e-02	2.848966e-02	0.0	9.715935e-02	2.779459e-02	0.0	1.056827e-01	2.749955e-02	0.0	1.144662e-01	2.742291e-02	0.0	1.234622e-01	2.813458e-02	0.0	1.326965e-01	2.913181e-02	0.0	1.421102e-01	3.062844e-02	0.0	1.517157e-01	3.254385e-02	0.0	1.615540e-01	3.457467e-02	0.0	1.715172e-01	3.718493e-02	0.0	1.817226e-01	3.985864e-02	0.0	1.921024e-01	4.282555e-02	0.0	2.026554e-01	4.607926e-02	0.0	2.134395e-01	4.940421e-02	0.0	2.243988e-01	5.296248e-02	0.0	2.355703e-01	5.662165e-02	0.0	2.469744e-01	6.029865e-02	0.0	2.586648e-01	6.380105e-02	0.0	2.705603e-01	6.736489e-02	0.0	2.827718e-01	7.053886e-02	0.0	2.952737e-01	7.338747e-02	0.0	3.079600e-01	7.627808e-02	0.0	3.210462e-01	7.792200e-02	0.0	3.343063e-01	7.955114e-02	0.0	3.477683e-01	8.056710e-02	0.0	3.614300e-01	8.083628e-02	0.0	3.752261e-01	8.110810e-02	0.0	3.891106e-01	8.013473e-02	0.0	4.031023e-01	7.911121e-02	0.0	4.171249e-01	7.752477e-02	0.0	4.311586e-01	7.532457e-02	0.0	4.452583e-01	7.311403e-02	0.0	4.592691e-01	7.013641e-02	0.0	4.733127e-01	6.713090e-02	0.0	4.873594e-01	6.403452e-02	0.0	5.013897e-01	6.082941e-02	0.0	5.154126e-01	5.762598e-02	0.0	5.294881e-01	5.477544e-02	0.0	5.435343e-01	5.196708e-02	0.0	5.575820e-01	4.947913e-02	0.0	5.716489e-01	4.750206e-02	0.0	5.856355e-01	4.553627e-02	0.0	5.996013e-01	4.422887e-02	0.0	6.134697e-01	4.302508e-02	0.0	6.272305e-01	4.204084e-02	0.0	6.408810e-01	4.142407e-02	0.0	6.543851e-01	4.081392e-02	0.0	6.677414e-01	4.054219e-02	0.0	6.809305e-01	4.032944e-02	0.0	6.939408e-01	4.016902e-02	0.0	7.067630e-01	4.010935e-02	0.0	7.193872e-01	4.005061e-02	0.0	7.318038e-01	3.988308e-02	0.0	7.440062e-01	3.969418e-02	0.0	7.559820e-01	3.935052e-02	0.0	7.677206e-01	3.872034e-02	0.0	7.792268e-01	3.810265e-02	0.0	7.904437e-01	3.686975e-02	0.0	8.014188e-01	3.564443e-02	0.0	8.121040e-01	3.410567e-02	0.0	8.225238e-01	3.245414e-02	0.0	8.326778e-01	3.073340e-02	0.0	8.425618e-01	2.892812e-02	0.0	8.521972e-01	2.716954e-02	0.0	8.615844e-01	2.546187e-02	0.0	8.707225e-01	2.379952e-02	0.0	8.796185e-01	2.221892e-02	0.0	8.882685e-01	2.069102e-02	0.0	8.966731e-01	1.921125e-02	0.0	9.048351e-01	1.778383e-02	0.0	9.127552e-01	1.639873e-02	0.0	9.204336e-01	1.504193e-02	0.0	9.278752e-01	1.372391e-02	0.0	9.350819e-01	1.243546e-02	0.0	9.420555e-01	1.116705e-02	0.0	9.488038e-01	9.939261e-03	0.0	9.553254e-01	8.722265e-03	0.0	9.616300e-01	7.545745e-03	0.0	9.677180e-01	6.386656e-03	0.0	9.735973e-01	5.263177e-03	0.0	9.792693e-01	4.157138e-03	0.0	9.847413e-01	3.081423e-03	0.0	9.900168e-01	2.028568e-03	0.0	9.951001e-01	9.954740e-04	0.0	1.000000e+00	0.000000e+00	0.0	9.950046e-01	2.139887e-04	0.0	9.898202e-01	4.112753e-04	0.0	9.844409e-01	5.591788e-04	0.0	9.788623e-01	6.629397e-04	0.0	9.730802e-01	7.424823e-04	0.0	9.670894e-01	7.642682e-04	0.0	9.608859e-01	7.629505e-04	0.0	9.544652e-01	6.958044e-04	0.0	9.478227e-01	6.120517e-04	0.0	9.409556e-01	4.316621e-04	0.0	9.338580e-01	2.452188e-04	0.0	9.265298e-01	-5.460219e-05	0.0	9.189645e-01	-3.880018e-04	0.0	9.111635e-01	-8.271213e-04	0.0	9.031275e-01	-1.436279e-03	0.0	8.948448e-01	-2.064146e-03	0.0	8.863551e-01	-3.121227e-03	0.0	8.776205e-01	-4.260211e-03	0.0	8.686839e-01	-5.723319e-03	0.0	8.595642e-01	-7.629755e-03	0.0	8.501985e-01	-9.604717e-03	0.0	8.407466e-01	-1.229715e-02	0.0	8.310493e-01	-1.505950e-02	0.0	8.210951e-01	-1.784730e-02	0.0	8.108920e-01	-2.068384e-02	0.0	8.003612e-01	-2.321537e-02	0.0	7.894624e-01	-2.525578e-02	0.0	7.783033e-01	-2.716791e-02	0.0	7.667434e-01	-2.770666e-02	0.0	7.549486e-01	-2.825636e-02	0.0	7.429229e-01	-2.801927e-02	0.0	7.306735e-01	-2.749445e-02	0.0	7.182095e-01	-2.692760e-02	0.0	7.055412e-01	-2.626456e-02	0.0	6.926729e-01	-2.559105e-02	0.0	6.796002e-01	-2.547455e-02	0.0	6.663419e-01	-2.553088e-02	0.0	6.529279e-01	-2.589535e-02	0.0	6.393994e-01	-2.717816e-02	0.0	6.257234e-01	-2.847496e-02	0.0	6.120205e-01	-3.058947e-02	0.0	5.982337e-01	-3.300301e-02	0.0	5.843800e-01	-3.563298e-02	0.0	5.705783e-01	-3.898278e-02	0.0	5.566969e-01	-4.235194e-02	0.0	5.428717e-01	-4.619122e-02	0.0	5.290542e-01	-5.026287e-02	0.0	5.152055e-01	-5.436207e-02	0.0	5.013770e-01	-5.860791e-02	0.0	4.875412e-01	-6.285598e-02	0.0	4.736427e-01	-6.685982e-02	0.0	4.597053e-01	-7.064703e-02	0.0	4.458044e-01	-7.442431e-02	0.0	4.317055e-01	-7.710467e-02	0.0	4.176697e-01	-7.975805e-02	0.0	4.036219e-01	-8.172685e-02	0.0	3.895700e-01	-8.296368e-02	0.0	3.756273e-01	-8.418609e-02	0.0	3.617540e-01	-8.418452e-02	0.0	3.480167e-01	-8.418296e-02	0.0	3.344472e-01	-8.365127e-02	0.0	3.210549e-01	-8.265488e-02	0.0	3.078358e-01	-8.164424e-02	0.0	2.948718e-01	-7.992868e-02	0.0	2.820973e-01	-7.823820e-02	0.0	2.695513e-01	-7.637157e-02	0.0	2.572393e-01	-7.434932e-02	0.0	2.451408e-01	-7.236214e-02	0.0	2.332654e-01	-7.039446e-02	0.0	2.216167e-01	-6.846395e-02	0.0	2.101785e-01	-6.671403e-02	0.0	1.989494e-01	-6.518738e-02	0.0	1.879623e-01	-6.369363e-02	0.0	1.771939e-01	-6.244772e-02	0.0	1.666709e-01	-6.125768e-02	0.0	1.564061e-01	-6.003836e-02	0.0	1.464063e-01	-5.874538e-02	0.0	1.366595e-01	-5.748512e-02	0.0	1.272464e-01	-5.576202e-02	0.0	1.181004e-01	-5.398608e-02	0.0	1.092661e-01	-5.200499e-02	0.0	1.008121e-01	-4.953118e-02	0.0	9.260000e-02	-4.712814e-02	0.0	8.477767e-02	-4.434428e-02	0.0	7.722680e-02	-4.152793e-02	0.0	6.994333e-02	-3.870120e-02	0.0	6.296675e-02	-3.575628e-02	0.0	5.620959e-02	-3.290399e-02	0.0	4.969284e-02	-3.008585e-02	0.0	4.338867e-02	-2.735688e-02	0.0	3.731058e-02	-2.467595e-02	0.0	3.143913e-02	-2.207658e-02	0.0	2.584410e-02	-1.939725e-02	0.0	2.048619e-02	-1.672187e-02	0.0	1.543756e-02	-1.390204e-02	0.0	1.073504e-02	-1.090874e-02	0.0	6.358655e-03	-7.788836e-03	0.0	2.544701e-03	-4.271631e-03	0.0	8.689573e-01	3.106268e-02	0.0	8.626243e-01	3.567955e-02	0.0	8.871434e+01	2.400919e+01	0.0	8.673766e+01	1.396474e+01	0.0	7.563459e+01	-1.232190e+01	0.0	7.577627e+01	-2.475063e+01	0.0	8.704831e+01	-1.780630e+01	0.0	8.662949e+01	-4.370743e+00	0.0	2.771721e+01	2.451390e+01	0.0	3.793132e+01	2.790377e+01	0.0	3.059189e+01	3.548765e+01	0.0	8.217927e+01	3.423069e+01	0.0	7.282089e+01	3.262606e+01	0.0	7.532333e+01	2.027979e+01	0.0	6.932839e+01	-3.564236e+01	0.0	7.620396e+01	-4.316475e+01	0.0	8.137176e+01	-3.636549e+01	0.0	8.709843e+01	-2.803677e+01	0.0	4.844663e+01	3.083552e+01	0.0	5.743577e+01	3.283877e+01	0.0	5.363590e+01	4.040199e+01	0.0	6.428833e+01	-5.193778e+01	0.0	6.110358e+01	-5.960661e+01	0.0	6.901370e+01	-5.990118e+01	0.0	6.896218e+01	5.924224e+01	0.0	7.298746e+01	5.036288e+01	0.0	6.010889e+01	6.493057e+01	0.0	4.818784e+01	-6.463543e+01	0.0	4.597220e+01	-7.400105e+01	0.0	5.427311e+01	-7.218768e+01	0.0	6.861004e+01	-4.454575e+01	0.0	4.879791e+01	7.181254e+01	0.0	3.086282e+01	6.309968e+01	0.0	2.675679e+01	5.337366e+01	0.0	3.681385e+01	5.527148e+01	0.0	5.389608e+01	-5.474456e+01	0.0	5.586398e+01	-6.373298e+01	0.0	2.481914e+01	8.148035e+01	0.0	2.472555e+01	7.253094e+01	0.0	3.153975e+01	7.867716e+01	0.0	3.695786e+01	-6.744663e+01	0.0	2.745353e+01	-7.632667e+01	0.0	3.860292e+01	-8.022126e+01	0.0	-4.157978e+00	4.757115e+01	0.0	5.438457e+00	4.884622e+01	0.0	-1.470569e+00	5.661016e+01	0.0	2.065809e+01	8.913587e+01	0.0	1.436070e+01	8.042527e+01	0.0	-7.826492e-01	3.680494e+01	0.0	1.266822e+01	4.048291e+01	0.0	4.055917e+00	6.117319e+00	0.0	3.159475e+00	4.497737e+00	0.0	4.811784e+00	3.795655e+00	0.0	1.599610e+00	-3.761331e-01	0.0	1.429514e+00	-5.992687e-01	0.0	1.743380e+00	-7.274080e-01	0.0	1.133495e+00	-1.192278e-01	0.0	1.184360e+00	-1.712481e-01	0.0	1.184120e+00	-7.577437e-02	0.0	9.973755e-01	4.363088e-03	0.0	9.887957e-01	5.768013e-03	0.0	9.872412e-01	1.048516e-02	0.0	9.844238e-01	6.551271e-03	0.0	9.819236e-01	8.879804e-03	0.0	9.168143e-01	7.919992e-02	0.0	9.155602e-01	5.616482e-02	0.0	9.313051e-01	5.722467e-02	0.0	8.556284e-01	-1.548898e-02	0.0	1.980654e-01	5.156058e-02	0.0	5.157918e-01	-1.180808e-01	0.0	4.906698e-01	-1.442978e-01	0.0	5.253135e-01	-1.509844e-01	0.0	4.646474e-01	-1.055196e-01	0.0	4.594264e-01	-1.286886e-01	0.0	4.854226e-01	-1.149058e-01	0.0	1.245146e-01	-6.966248e-02	0.0	1.211246e-01	-6.065828e-02	0.0	1.146775e-01	-6.50
[...]
POINT_DATA 1834

SCALARS Density double 1
LOOKUP_TABLE default
1.291171e+00	1.291308e+00	1.291942e+00	1.292244e+00	1.292187e+00	1.292106e+00	1.292107e+00	1.292085e+00	1.292051e+00	1.292026e+00	1.292011e+00	1.292008e+00	1.292025e+00	1.292065e+00	1.292121e+00	1.292175e+00	1.292219e+00	1.292254e+00	1.292279e+00	1.292296e+00	1.292307e+00	1.292316e+00	1.292322e+00	1.292328e+00	1.292333e+00	1.292339e+00	1.292346e+00	1.292355e+00	1.292366e+00	1.292382e+00	1.292401e+00	1.292424e+00	1.292456e+00	1.292492e+00	1.292534e+00	1.292578e+00	1.292623e+00	1.292650e+00	1.292648e+00	1.292621e+00	1.292577e+00	1.292527e+00	1.292478e+00	1.292430e+00	1.292376e+00	1.292333e+00	1.292395e+00	1.292299e+00	1.291757e+00	1.539571e+00	1.219975e+00	1.236689e+00	1.157711e+00	1.122674e+00	1.088459e+00	1.072515e+00	1.041425e+00	1.004252e+00	9.464958e-01	8.770880e-01	7.839704e-01	7.469964e-01	7.665746e-01	1.006990e+00	1.217442e+00	1.275942e+00	1.305170e+00	1.327217e+00	1.337791e+00	1.333742e+00	1.337795e+00	1.326510e+00	1.322247e+00	1.313487e+00	1.297218e+00	1.290172e+00	1.269261e+00	1.248385e+00	1.227435e+00	1.194455e+00	1.156858e+00	1.120563e+00	1.077415e+00	1.020551e+00	9.871741e-01	9.072095e-01	8.377637e-01	8.092421e-01	7.486380e-01	7.158583e-01	6.646682e-01	6.126619e-01	5.916895e-01	5.526109e-01	5.313349e-01	5.054105e-01	4.834362e-01	4.736728e-01	4.829039e-01	5.779459e-01	9.209252e-01	1.143675e+00	1.133041e+00	1.153813e+00	1.159058e+00	1.164213e+00	1.170654e+00	1.166431e+00	1.169456e+00	1.166580e+00	1.164086e+00	1.162240e+00	1.155348e+00	1.151976e+00	1.145920e+00	1.138386e+00	1.132521e+00	1.127141e+00	1.118957e+00	1.119058e+00	1.114972e+00	1.117055e+00	1.126862e+00	1.131050e+00	1.142418e+00	1.150547e+00	1.159629e+00	1.168139e+00	1.174092e+00	1.179614e+00	1.184383e+00	1.187961e+00	1.191913e+00	1.195289e+00	1.198429e+00	1.201504e+00	1.204832e+00	1.207286e+00	1.210790e+00	1.213489e+00	1.216382e+00	1.219377e+00	1.222478e+00	1.225344e+00	1.229423e+00	1.230541e+00	1.240860e+00	1.224756e+00	1.236087e+00	1.348276e+00	1.324490e+00	1.331198e+00	1.336585e+00	1.338296e+00	1.341428e+00	1.343365e+00	1.346388e+00	1.348081e+00	1.350597e+00	1.352936e+00	1.354467e+00	1.359493e+00	1.358767e+00	1.365211e+00	1.366601e+00	1.364001e+00	1.368819e+00	1.358592e+00	1.356982e+00	1.346469e+00	1.319462e+00	1.298252e+00	1.263770e+00	1.224876e+00	1.197617e+00	1.149764e+00	1.143638e+00	1.164045e+00	1.178845e+00	1.221998e+00	1.251340e+00	1.276659e+00	1.307527e+00	1.325625e+00	1.334423e+00	1.352365e+00	1.354268e+00	1.355984e+00	1.359067e+00	1.348173e+00	1.351064e+00	1.341635e+00	1.330566e+00	1.322914e+00	1.303190e+00	1.286363e+00	1.266289e+00	1.242590e+00	1.219848e+00	1.107701e+00	7.757334e-01	6.540062e-01	6.570816e-01	6.820920e-01	7.503463e-01	7.770324e-01	8.361574e-01	8.965884e-01	9.223090e-01	9.740529e-01	9.998478e-01	1.044210e+00	1.097782e+00	1.125981e+00	1.163886e+00	1.194801e+00	1.218126e+00	1.243381e+00	1.263287e+00	1.269115e+00	1.275140e+00	1.275960e+00	1.262361e+00	1.250083e+00	1.240337e+00	1.213992e+00	1.204115e+00	1.208454e+00	1.196587e+00	1.222007e+00	1.246539e+00	1.269289e+00	1.312092e+00	1.335953e+00	1.367420e+00	1.396861e+00	1.418482e+00	1.439454e+00	1.457446e+00	1.470236e+00	1.487893e+00	1.504913e+00	1.524130e+00	1.549857e+00	1.581631e+00	1.600308e+00	1.681234e+00	1.181753e+00	1.179686e+00	1.291929e+00	1.291645e+00	1.292010e+00	1.292285e+00	1.292098e+00	1.291616e+00	1.291883e+00	1.291999e+00	1.291866e+00	1.292162e+00	1.292193e+00	1.291969e+00	1.292339e+00	1.292318e+00	1.292304e+00	1.292299e+00	1.292061e+00	1.292109e+00	1.292026e+00	1.292382e+00	1.292421e+00	1.292400e+00	1.292086e+00	1.292089e+00	1.292064e+00	1.292490e+00	1.292524e+00	1.292484e+00	1.292337e+00	1.292029e+00	1.291926e+00	1.291875e+00	1.291945e+00	1.292424e+00	1.292455e+00	1.291960e+00	1.291929e+00	1.291974e+00	1.292557e+00	1.292615e+00	1.292569e+00	1.291711e+00	1.291690e+00	1.291794e+00	1.291981e+00	1.291941e+00	1.291524e+00	1.291542e+00	1.288325e+00	1.286933e+00	1.291101e+00	1.309180e+00	1.302386e+00	1.301150e+00	1.320109e+00	1.319798e+00	1.318312e+00	1.245404e+00	1.236329e+00	1.238337e+00	1.233906e+00	1.231602e+00	1.234446e+00	1.222367e+00	1.229007e+00	1.348115e+00	1.283191e+00	1.277967e+00	1.115885e+00	1.266176e+00	8.467579e-01	8.842589e-01	1.110456e+00	1.234746e+00	1.218013e+00	1.238072e+00	1.252650e+00	1.257968e+00	1.248104e+00	1.127295e+00	1.200029e+00	1.185358e+00	1.347885e+00	1.349705e+00	1.340208e+00	1.315122e+00	1.308951e+00	1.323073e+00	1.167554e+00	1.169930e+00	1.171374e+00	1.172680e+00	1.173475e+00	1.168062e+00	1.166635e+00	1.170470e+00	1.175717e+00	1.177963e+00	1.159576e+00	1.166710e+00	1.161406e+00	1.345345e+00	1.342312e+00	1.343130e+00	1.348718e+00	1.352485e+00	1.348538e+00	1.354088e+00	1.352941e+00	1.351212e+00	1.365130e+00	1.283583e+00	1.301592e+00	1.280895e+00	1.333191e+00	1.322602e+00	1.344511e+00	1.180669e+00	1.254578e+00	1.334025e+00	1.355042e+00	1.358584e+00	1.362756e+00	1.363933e+00	1.364342e+00	1.363897e+00	1.187202e+00	1.211777e+00	1.205836e+00	1.362461e+00	1.361112e+00	1.360720e+00	1.364786e+00	1.216599e+00	1.195534e+00	1.355700e+00	1.357741e+00	1.361507e+00	1.360036e+00	1.348069e+00	1.208480e+00	1.212435e+00	1.264788e+00	1.238507e+00	1.252588e+00	1.247764e+00	1.242525e+00	1.221871e+00	1.318427e+00	1.330743e+00	1.315090e+00	1.331341e+00	1.318019e+00	1.340371e+00	1.335286e+00	1.327838e+00	1.317034e+00	1.298975e+00	1.270647e+00	1.300836e+00	1.282551e+00	1.292352e+00	1.155400e+00	1.344475e+00	1.343556e+00	1.147579e+00	1.116214e+00	1.116111e+00	1.034277e+00	1.074549e+00	9.314047e-01	1.004576e+00	9.573885e-01	8.180554e-01	8.081750e-01	8.738353e-01	8.804982e-01	9.153414e-01	8.485483e-01	1.349546e+00	8.586454e-01	7.254844e-01	6.807528e-01	7.329279e-01	7.120894e-01	7.551576e-01	7.946452e-01	6.066838e-01	1.329108e+00	1.322297e+00	1.330178e+00	1.298974e+00	1.293955e+00	1.346266e+00	1.350629e+00	1.284737e+00	1.318986e+00	1.296797e+00	1.144007e+00	1.137958e+00	1.034315e+00	7.312802e-01	7.154045e-01	7.762524e-01	1.356807e+00	1.356951e+00	8.196086e-01	7.958314e-01	8.799558e-01	6.958195e-01	6.710110e-01	1.356266e+00	1.355877e+00	1.352929e+00	1.308855e+00	1.316455e+00	1.299345e+00	1.334817e+00	1.218699e+00	1.182931e+00	1.250836e+00	1.215159e+00	1.212677e+00	1.218975e+00	1.221107e+00	1.213314e+00	1.210781e+00	1.160123e+00	1.339923e+00	1.337077e+00	1.349670e+00	1.328522e+00	1.342891e+00	1.334190e+00	1.037875e+00	9.566247e-01	9.618358e-01	9.730195e-01	1.034353e+00	1.015541e+00	1.333607e+00	1.002898e+00	1.033786e+00	1.049156e+00	1.040168e+00	1.292646e+00	1.292608e+00	1.127575e+00	1.085453e+00	1.121409e+00	1.294881e+00	1.295603e+00	1.295707e+00	1.235554e+00	1.292641e+00	1.292690e+00	1.292733e+00	1.213781e+00	1.228487e+00	1.235769e+00	1.268527e+00	1.262166e+00	1.253252e+00	1.248980e+00	1.263359e+00	1.269120e+00	1.265402e+00	1.221744e+00	1.257136e+00	1.262789e+00	1.264900e+00	1.292220e+00	1.302246e+00	1.323117e+00	1.213984e+00	1.231953e+00	1.244940e+00	1.271290e+00	1.244153e+00	1.251789e+00	1.237215e+00	1.227108e+00	1.239638e+00	1.248304e+00	1.303623e+00	1.343826e+00	1.324554e+00	1.416803e+00	1.398691e+00	1.410441e+00	1.127060e+00	1.132309e+00	1.143546e+00	1.147222e+00	1.203561e+00	1.208945e+00	1.199931e+00	1.152506e+00	1.138194e+00	1.177812e+00	1.173012e+00	1.164913e+00	1.172156e+00	1.143638e+00	1.127402e+00	1.134551e+00	1.297038e+00	1.296291e+00	1.292595e+00	1.292536e+00	1.292564e+00	1.118173e+00	1.293522e+00	1.293537e+00	1.293972e+00	1.453131e+00	1.419038e+00	1.276067e+00	1.247038e+00	1.493840e+00	1.479937e+00	1.292707e+00	1.292672e+00	1.292681e+00	1.520172e+00	1.521717e+00	1.539399e+00	1.563312e+00	1.582209e+00	1.471164e+00	1.470380e+00	1.501052e+00	1.544672e+00	1.556273e+00	1.614184e+00	1.315338e+00	1.321765e+00	1.310658e+00	1.298888e+00	1.300394e+00	1.297759e+00	1.524850e+00	1.496215e+00	1.521864e+00	1.292598e+00	1.294922e+00	1.296277e+00	1.296139e+00	1.292938e+00	1.292883e+00	1.292947e+00	1.323342e+00	1.312566e+00	1.311042e+00	1.292576e+00	1.292513e+00	1.292506e+00	1.300829e+00	1.298452e+00	1.301974e+00	1.297849e+00	1.292493e+00	1.292770e+00	1.292846e+00	1.292654e+00	1.292410e+00	1.292406e+00	1.292345e+00	1.292450e+00	1.292490e+00	1.292409e+00	1.292420e+00	1.292386e+00	1.292383e+00	1.292365e+00	1.292355e+00	1.292343e+00	1.292323e+00	1.292332e+00	1.292339e+00	1.292309e+00	1.292293e+00	1.292311e+00	1.107279e+00	1.138558e+00	1.067753e+00	1.292807e+00	1.293249e+00	1.291013e+00	1.292279e+00	1.292323e+00	1.292101e+00	1.292273e+00	1.292205e+00	1.292234e+00	1.292277e+00	8.302028e-01	7.854711e-01	1.291167e+00	1.244748e+00	1.268159e+00	1.292209e+00	9.929135e-01	1.027731e+00	1.012352e+00	9.161182e-01	9.304754e-01	1.002142e+00	1.292115e+00	1.292153e+00	1.267161e+00	1.238610e+00	1.169982e+00	1.286502e+00	1.212133e+00	1.292113e+00	1.292065e+00	1.267559e+00	1.265966e+00	1.244767e+00	1.149245e+00	1.140869e+00	1.210862e+00	1.204057e+00	1.176469e+00	5.340422e-01	6.560232e-01	6.133469e-01	5.690760e-01	1.292055e+00	1.145993e+00	1.101692e+00	9.887782e-01	5.487543e-01	6.286209e-01	5.077565e-01	4.980297e-01	1.131277e+00	1.134572e+00	1.221274e+00	1.226918e+00	1.228657e+00	1.207083e+00	1.207526e+00	1.248322e+00	1.242032e+00	1.233037e+00	1.165019e+00	1.156977e+00	1.178634e+00	1.156115e+00	1.291183e+00	1.291274e+00	1.282516e+00	1.278358e+00	1.277722e+00	1.243591e+00	1.222152e+00	1.242020e+00	1.165001e+00	1.149846e+00	9.476413e-01	1.130171e+00	1.127658e+00	1.291111e+00	1.287869e+00	1.286418e+00	1.176432e+00	1.159568e+00	1.161563e+00	1.168528e+00	1.170248e+00	1.162318e+00	1.173399e+00	1.221571e+00	1.221637e+00	1.228359e+00	1.225676e+00	1.224727e+00	1.254482e+00	1.262219e+00	9.502947e-01	1.292357e+00	1.292363e+00	1.292382e+00	1.100241e+00	9.983148e-01	1.292472e+00	1.292685e+00	1.292222e+00	1.292467e+00	1.292716e+00	1.293028e+00	1.292411e+00	1.292637e+00	1.292734e+00	1.292266e+00	1.292367e+00	1.292402e+00	1.292627e+00	1.292656e+00	1.292665e+00	1.293168e+00	1.291975e+00	1.292009e+00	1.291982e+00	1.291549e+00	1.291391e+00	1.292351e+00	1.291718e+00	1.291750e+00	1.292018e+00	1.293216e+00	1.293042e+00	1.292749e+00	1.292626e+00	1.155860e+00	1.216925e+00	1.171479e+00	1.292321e+00	1.292793e+00	1.293087e+00	1.294372e+00	1.294268e+00	1.293597e+00	1.291890e+00	1.292019e+00	1.291829e+00	1.292008e+00	1.291396e+00	1.291329e+00	1.290861e+00	1.291648e+00	1.289661e+00	1.290684e+00	1.290040e+00	1.292324e+00	1.292465e+00	1.292374e+00	1.292615e+00	1.292541e+00	1.292574e+00	1.292377e+00	1.292401e+00	1.292398e+00	1.292340e+00	1.292367e+00	1.291966e+00	1.291880e+00	1.291858e+00	1.292674e+00	1.292749e+00	1.292754e+00	1.292707e+00	1.292134e+00	1.292071e+00	1.292043e+00	1.291895e+00	1.291963e+00	1.291993e+00	1.291641e+00	1.291642e+00	1.291630e+00	1.292228e+00	1.292334e+00	1.292531e+00	1.292641e+00	1.292634e+00	1.292452e+00	1.292438e+00	1.292416e+00	1.292045e+00	1.292147e+00	1.292333e+00	1.081118e+00	1.061830e+00	1.330289e+00	1.300618e+00	1.304836e+00	1.291873e+00	1.291785e+00	1.291969e+00	1.292911e+00	1.292116e+00	1.292078e+00	1.292164e+00	1.292457e+00	1.292502e+00	1.292496e+00	1.291663e+00	1.292002e+00	1.291909e+00	1.292761e+00	1.292669e+00	1.293428e+00	1.294382e+00	1.293867e+00	1.293473e+00	1.292848e+00	1.293466e+00	1.291870e+00	1.292667e+00	1.292739e+00	1.293716e+00	1.293635e+00	1.291309e+00	1.171621e+00	1.292329e+00	1.292313e+00	1.292271e+00	1.292374e+00	1.292360e+00	1.291950e+00	1.292003e+00	1.292348e+00	1.292499e+00	1.292483e+00	1.292425e+00	1.292239e+00	1.292738e+00	1.292803e+00	1.292649e+00	1.292655e+00	1.292648e+00	1.291993e+00	1.291553e+00	1.292577e+00	1.292308e+00	1.292348e+00	1.292445e+00	1.292493e+00	1.292559e+00	1.291220e+00	1.292485e+00	1.291767e+00	1.292536e+00	1.292750e+00	1.292270e+00	1.291913e+00	1.292540e+00	1.292559e+00	1.292634e+00	1.292501e+00	1.292640e+00	1.291650e+00	1.291758e+00	1.291985e+00	1.291558e+00	1.290155e+00	1.292821e+00	1.122183e+00	1.176312e+00	1.140925e+00	1.292018e+00	1.292497e+00	1.292135e+00	1.292287e+00	1.292093e+00	1.291855e+00	1.291945e+00	1.292831e+00	1.292684e+00	1.290977e+00	1.292066e+00	1.291523e+00	1.292740e+00	1.292010e+00	1.291983e+00	1.291801e+00	1.292237e+00	1.292454e+00	1.292451e+00	1.292190e+00	1.291865e+00	1.291910e+00	1.292370e+00	1.290661e+00	1.288322e+00	1.292448e+00	1.293030e+00	1.293161e+00	1.340809e+00	1.434221e+00	1.293959e+00	1.291567e+00	1.291378e+00	1.292195e+00	1.292292e+00	1.291908e+00	1.291586e+00	1.293686e+00	1.286311e+00	1.293224e+00	1.285040e+00	1.294685e+00	1.293714e+00	1.330368e+00	1.335608e+00	1.289597e+00	1.291862e+00	1.291032e+00	1.293530e+00	1.291590e+00	1.292549e+00	1.289805e+00	1.294534e+00	1.432785e+00	1.415127e+00	1.431781e+00	8.804357e-01	1.295167e+00	1.290908e+00	1.292521e+00	1.293080e+00	1.292795e+00	1.346309e+00	1.338037e+00	1.342600e+00	1.294119e+00	1.292997e+00	1.291573e+00	1.288567e+00	1.289123e+00	1.295202e+00	1.288535e+00	1.286266e+00	1.290174e+00	8.983600e-01	9.791438e-01	9.932369e-01	1.293355e+00	1.295223e+00	1.310410e+00	1.302708e+00	1.297116e+00	1.288943e+00	1.296265e+00	1.285200e+00	1.287546e+00	1.286217e+00	1.295921e+00	1.296515e+00	1.297014e+00	1.295117e+00	1.294634e+00	1.293910e+00	1.293992e+00	1.297787e+00	1.297280e+00	1.286638e+00	1.293771e+00	1.291230e+00	1.273724e+00	1.264073e+00	1.252671e+00	1.463967e+00	1.428405e+00	1.435509e+00	1.296870e+00	1.299899e+00	1.304940e+00	1.291836e+00	1.282346e+00	1.295538e+00	1.294535e+00	1.355425e+00	1.368204e+00	1.331601e+00	1.292725e+00	1.297527e+00	1.295322e+00	1.273323e+00	1.278852e+00	1.288476e+00	1.336673e+00	1.335955e+00	1.339489e+00	1.161194e+00	1.301658e+00	1.285864e+00	1.282812e+00	1.304730e+00	1.307480e+00	1.312999e+00	1.276503e+00	1.281072e+00	1.223383e+00	1.221218e+00	1.303366e+00	1.295776e+00	1.297142e+00	1.283167e+00	1.300017e+00	1.296657e+00	1.285600e+00	1.296760e+00	1.296986e+00	1.280878e+00	1.271814e+00	1.299138e+00	1.305643e+00	1.311738e+00	1.314436e+00	1.305993e+00	1.351874e+00	1.349552e+00	1.335000e+00	1.296546e+00	1.295824e+00	1.285157e+00	1.289654e+00	1.300736e+00	1.305545e+00	1.259662e+00	1.243307e+00	9.398280e-01	1.045380e+00	1.019893e+00	1.288130e+00	1.297761e+00	1.305398e+00	1.285650e+00	1.304557e+00	1.270692e+00	1.289822e+00	1.299637e+00	1.345202e+00	1.295987e+00	1.292578e+00	1.150987e+00	1.294847e+00	1.261668e+00	1.236589e+00	1.192847e+00	1.192908e+00	1.271012e+00	1.274786e+00	1.368625e+00	1.360921e+00	1.346285e+00	1.299871e+00	1.281869e+00	1.257529e+00	1.282551e+00	1.270089e+00	1.167596e+00	1.149138e+00	1.280182e+00	1.263357e+00	1.263042e+00	1.263438e+00	1.285502e+00	1.273927e+00	1.310872e+00	1.319563e+00	1.327129e+00	1.399171e+00	1.375805e+00	1.337341e+00	1.338236e+00	1.277561e+00	1.285147e+00	1.199244e+00	1.302033e+00	1.315469e+00	1.304104e+00	1.317819e+00	1.302172e+00	1.309909e+00	1.245862e+00	1.270113e+00	1.256271e+00	1.298732e+00	1.282987e+00	1.257282e+00	1.311241e+00	1.329410e+00	1.321667e+00	1.319598e+00	1.286503e+00	1.240445e+00	1.219420e+00	1.247897e+00	1.303306e+00	1.323207e+00	1.319946e+00	1.324820e+00	1.332397e+00	1.353701e+00	1.302173e+00	1.289188e+00	1.257418e+00	1.216243e+00	4.793886e-01	1.292316e+00	1.183292e+00	1.245289e+00	1.209628e+00	1.305088e+00	1.256276e+00	1.262053e+00	1.270407e+00	1.244894e+00	1.307790e+00	1.313852e+00	1.373399e+00	1.351059e+00	1.279079e+00	1.466192e+00	1.450034e+00	1.317877e+00	1.123402e+00	1.109632e+00	9.209200e-01	1.226149e+00	1.321603e+00	1.266389e+00	1.246093e+00	1.302453e+00	1.269504e+00	1.345161e+00	1.195056e+00	1.156298e+00	1.232314e+00	1.274641e+00	1.472354e+00	1.454661e+00	1.440679e+00	1.080790e+00	1.242637e+00	1.163991e+00	1.275797e+00	1.279142e+00	1.197327e+00	1.199814e+00	1.201624e+00	1.163216e+00	1.170941e+00	1.200286e+00	7.642095e-01	7.189758e-01	6.217064e-01	1.337927e+00	1.471694e+00	1.455029e+00	1.480699e+00	1.260371e+00	1.272070e+00	1.248794e+00	1.239377e+00	1.186651e+00	1.323518e+00	1.332281e+00	1.333961e+00	1.321606e+00	1.366340e+00	1.221290e+00	1.173471e+00	1.245174e+00	1.226373e+00	1.200971e+00	1.192402e+00	9.113399e-01	8.304206e-01	8.009284e-01	1.220910e+00	8.010373e-01	1.352824e+00	1.307000e+00	1.312574e+00	1.295075e+00	1.271764e+00	1.274502e+00	1.289339e+00	1.200982e+00	1.195376e+00	1.194151e+00	1.222728e+00	8.359762e-01	8.929182e-01	7.670891e-01	1.603010e+00	1.598252e+00	1.413964e+00	1.444478e+00	1.401014e+00	1.108432e+00	1.270833e+00	1.263867e+00	1.258665e+00	1.334897e+00	1.342374e+00	1.260027e+00	1.236926e+00	9.667693e-01	1.388424e+00	1.353831e+00	1.266435e+00	1.290634e+00	1.384241e+00	1.181042e+00	1.171376e+00	1.162650e+00	5.164115e-01	4.754606e-01	8.956105e-01	1.307889e+00	1.292183e+00	1.269293e+00	1.278927e+00	1.395387e+00	1.422766e+00	1.411530e+00	1.231900e+00	1.213598e+00	1.224778e+00	1.303159e+00	1.309301e+00	1.335332e+00	1.326952e+00	1.159248e+00	1.097382e+00	9.012424e-01	1.350033e+00	1.350352e+00	1.252667e+00	1.288293e+00	1.297431e+00	1.234448e+00	1.207819e+00	1.329374e+00	1.340233e+00	1.346215e+00	1.319631e+00	1.211614e+00	1.213769e+00	1.258949e+00	1.015076e+00	9.926060e-01	9.340391e-01	1.104402e+00	1.118573e+00	1.215005e+00	1.268941e+00	1.287460e+00	1.234817e+00	1.259949e+00	1.392829e+00	1.373803e+00	1.443367e+00	1.318432e+00	1.324567e+00	1.345683e+00	1.260783e+00	1.263797e+00	1.365241e+00	1.321919e+00	1.195610e+00	1.210491e+00	1.287230e+00	1.337025e+00	1.285989e+00	1.334736e+00	1.329126e+00	1.301095e+00	1.391179e+00	1.393894e+00	1.414321e+00	1.076098e+00	1.297861e+00	1.275999e+00	1.252809e+00	1.295553e+00	9.168418e-01	1.324532e+00	1.431102e+00	1.389862e+00	1.295655e+00	1.296209e+00	1.233663e+00	1.229566e+00	1.267237e+00	1.251562e+00	1.281213e+00	1.264442e+00	1.241146e+00	1.288735e+00	1.306340e+00	1.278090e+00	1.223006e+00	1.200156e+00	1.179068e+00	1.211808e+00	1.306912e+00	1.308186e+00	1.330022e+00	1.381374e+00	1.193831e+00	1.287785e+00	1.275830e+00	1.235515e+00	1.240948e+00	1.317600e+00	1.320447e+00	1.411894e+00	1.524879e+00	1.497567e+00	1.211262e+00	1.217767e+00	1.218313e+00	1.206217e+00	1.194248e+00	1.251499e+00	1.229574e+00	1.347775e+00	1.347549e+00	1.343897e+00	1.226734e+00	1.215257e+00	1.288156e+00	1.283599e+00	1.237496e+00	1.232931e+00	8.528577e-01	7.488300e-01	9.127189e-01	8.528609e-01	1.339834e+00	1.191366e+00	1.168194e+00	1.323584e+00	9.730105e-01	1.194009e+00	1.042468e+00	1.184220e+00	1.171499e+00	1.172251e+00	1.155355e+00	1.154513e+00	1.328211e+00	1.276152e+00	1.268582e+00	1.397190e+00	1.336232e+00	1.339845e+00	1.306127e+00	1.327277e+00	1.147654e+00	1.350792e+00	1.425599e+00	1.415786e+00	9.779650e-01	1.046636e+00	1.067125e+00	1.253981e+00	1.407995e+00	1.288371e+00	1.331908e+00	1.299413e+00	9.857678e-01	1.018070e+00	1.311011e+00	1.348642e+00	1.279180e+00	1.283660e+00	1.104295e+00	1.077276e+00	1.331014e+00	1.338800e+00	1.340661e+00	1.340619e+00	1.584432e+00	1.262500e+00	1.266108e+00	1.069084e+00	1.125937e+00	1.275628e+00	1.260308e+00	1.311359e+00	1.273155e+00	1.235598e+00	1.273398e+00	1.130014e+00	1.136087e+00	1.196597e+00	1.193516e+00	6.621497e-01	6.716910e-01	1.254690e+00	1.273774e+00	6.517619e-01	6.210723e-01	1.190035e+00	1.218004e+00	1.239499e+00	1.201807e+00	8.854000e-01	8.481461e-01	7.102673e-01	1.275797e+00	1.269763e+00	1.362494e+00	1.234356e+00	1.168911e+00	1.196948e+00	1.084270e+00	6.057026e-01	1.467046e+00	1.248219e+00	1.225927e+00	1.234470e+00	1.355819e+00	1.357092e+00	1.353692e+00	1.350849e+00	1.206038e+00	1.212107e+00	1.188343e+00	1.184648e+00	1.174510e+00	1.212202e+00	1.322019e+00	1.363701e+00	1.361492e+00	1.360690e+00	1.357473e+00	1.355980e+00	1.385375e+00	1.375263e+00	1.342095e+00	1.344126e+00	1.144905e+00	1.247144e+00	1.223643e+00	8.879708e-01	1.468470e+00	1.303182e+00	1.320771e+00	1.322671e+00	1.184959e+00	1.187167e+00	1.175086e+00	1.171101e+00	1.163210e+00	1.313358e+00	1.325848e+00	1.240737e+00	1.244830e+00	1.245381e+00	1.095172e+00	1.249050e+00	1.228016e+00	1.169445e+00	1.196600e+00	9.791285e-01	6.685368e-01	1.289753e+00	1.353841e+00	1.348944e+00	1.353342e+00	1.360974e+00	1.360343e+00	1.358505e+00	1.331822e+00	1.338604e+00	1.333087e+00	1.315494e+00	1.185314e+00	1.263895e+00	1.298649e+00	1.324269e+00	1.334744e+00	1.224054e+00	1.194024e+00	1.193576e+00	1.203041e+00	1.186954e+00	1.196369e+00	1.188069e+00	1.196256e+00	1.264896e+00	1.260069e+00	1.326881e+00	1.320167e+00	1.348703