# vtk DataFile Version 3.0
vtk output
ASCII
DATASET UNSTRUCTURED_GRID
POINTS 198 double
0.000000e+00	0.000000e+00	0.0	3.307550e-03	3.749682e-03	0.0	6.851584e-03	7.511902e-03	0.0	1.130435e-02	1.053054e-02	0.0	1.599195e-02	1.353571e-02	0.0	2.119370e-02	1.605295e-02	0.0	2.661589e-02	1.858186e-02	0.0	3.239046e-02	2.083152e-02	0.0	3.840082e-02	2.306122e-02	0.0	4.473897e-02	2.502075e-02	0.0	5.135516e-02	2.679877e-02	0.0	5.830331e-02	2.820024e-02	0.0	6.556002e-02	2.904204e-02	0.0	7.310176e-02	2.952926e-02	0.0	8.088313e-02	2.906148e-02	0.0	8.890266e-02	2.848966e-02	0.0	9.715935e-02	2.779459e-02	0.0	1.056827e-01	2.749955e-02	0.0	1.144662e-01	2.742291e-02	0.0	1.234622e-01	2.813458e-02	0.0	1.326965e-01	2.913181e-02	0.0	1.421102e-01	3.062844e-02	0.0	1.517157e-01	3.254385e-02	0.0	1.615540e-01	3.457467e-02	0.0	1.715172e-01	3.718493e-02	0.0	1.817226e-01	3.985864e-02	0.0	1.921024e-01	4.282555e-02	0.0	2.026554e-01	4.607926e-02	0.0	2.134395e-01	4.940421e-02	0.0	2.243988e-01	5.296248e-02	0.0	2.355703e-01	5.662165e-02	0.0	2.469744e-01	6.029865e-02	0.0	2.586648e-01	6.380105e-02	0.0	2.705603e-01	6.736489e-02	0.0	2.827718e-01	7.053886e-02	0.0	2.952737e-01	7.338747e-02	0.0	3.079600e-01	7.627808e-02	0.0	3.210462e-01	7.792200e-02	0.0	3.343063e-01	7.955114e-02	0.0	3.477683e-01	8.056710e-02	0.0	3.614300e-01	8.083628e-02	0.0	3.752261e-01	8.110810e-02	0.0	3.891106e-01	8.013473e-02	0.0	4.031023e-01	7.911121e-02	0.0	4.171249e-01	7.752477e-02	0.0	4.311586e-01	7.532457e-02	0.0	4.452583e-01	7.311403e-02	0.0	4.592691e-01	7.013641e-02	0.0	4.733127e-01	6.713090e-02	0.0	4.873594e-01	6.403452e-02	0.0	5.013897e-01	6.082941e-02	0.0	5.154126e-01	5.762598e-02	0.0	5.294881e-01	5.477544e-02	0.0	5.435343e-01	5.196708e-02	0.0	5.575820e-01	4.947913e-02	0.0	5.716489e-01	4.750206e-02	0.0	5.856355e-01	4.553627e-02	0.0	5.996013e-01	4.422887e-02	0.0	6.134697e-01	4.302508e-02	0.0	6.272305e-01	4.204084e-02	0.0	6.408810e-01	4.142407e-02	0.0	6.543851e-01	4.081392e-02	0.0	6.677414e-01	4.054219e-02	0.0	6.809305e-01	4.032944e-02	0.0	6.939408e-01	4.016902e-02	0.0	7.067630e-01	4.010935e-02	0.0	7.193872e-01	4.005061e-02	0.0	7.318038e-01	3.988308e-02	0.0	7.440062e-01	3.969418e-02	0.0	7.559820e-01	3.935052e-02	0.0	7.677206e-01	3.872034e-02	0.0	7.792268e-01	3.810265e-02	0.0	7.904437e-01	3.686975e-02	0.0	8.014188e-01	3.564443e-02	0.0	8.121040e-01	3.410567e-02	0.0	8.225238e-01	3.245414e-02	0.0	8.326778e-01	3.073340e-02	0.0	8.425618e-01	2.892812e-02	0.0	8.521972e-01	2.716954e-02	0.0	8.615844e-01	2.546187e-02	0.0	8.707225e-01	2.379952e-02	0.0	8.796185e-01	2.221892e-02	0.0	8.882685e-01	2.069102e-02	0.0	8.966731e-01	1.921125e-02	0.0	9.048351e-01	1.778383e-02	0.0	9.127552e-01	1.639873e-02	0.0	9.204336e-01	1.504193e-02	0.0	9.278752e-01	1.372391e-02	0.0	9.350819e-01	1.243546e-02	0.0	9.420555e-01	1.116705e-02	0.0	9.488038e-01	9.939261e-03	0.0	9.553254e-01	8.722265e-03	0.0	9.616300e-01	7.545745e-03	0.0	9.677180e-01	6.386656e-03	0.0	9.735973e-01	5.263177e-03	0.0	9.792693e-01	4.157138e-03	0.0	9.847413e-01	3.081423e-03	0.0	9.900168e-01	2.028568e-03	0.0	9.951001e-01	9.954740e-04	0.0	1.000000e+00	0.000000e+00	0.0	9.950046e-01	2.139887e-04	0.0	9.898202e-01	4.112753e-04	0.0	9.844409e-01	5.591788e-04	0.0	9.788623e-01	6.629397e-04	0.0	9.730802e-01	7.424823e-04	0.0	9.670894e-01	7.642682e-04	0.0	9.608859e-01	7.629505e-04	0.0	9.544652e-01	6.958044e-04	0.0	9.478227e-01	6.120517e-04	0.0	9.409556e-01	4.316621e-04	0.0	9.338580e-01	2.452188e-04	0.0	9.265298e-01	-5.460219e-05	0.0	9.189645e-01	-3.880018e-04	0.0	9.111635e-01	-8.271213e-04	0.0	9.031275e-01	-1.436279e-03	0.0	8.948448e-01	-2.064146e-03	0.0	8.863551e-01	-3.121227e-03	0.0	8.776205e-01	-4.260211e-03	0.0	8.686839e-01	-5.723319e-03	0.0	8.595642e-01	-7.629755e-03	0.0	8.501985e-01	-9.604717e-03	0.0	8.407466e-01	-1.229715e-02	0.0	8.310493e-01	-1.505950e-02	0.0	8.210951e-01	-1.784730e-02	0.0	8.108920e-01	-2.068384e-02	0.0	8.003612e-01	-2.321537e-02	0.0	7.894624e-01	-2.525578e-02	0.0	7.783033e-01	-2.716791e-02	0.0	7.667434e-01	-2.770666e-02	0.0	7.549486e-01	-2.825636e-02	0.0	7.429229e-01	-2.801927e-02	0.0	7.306735e-01	-2.749445e-02	0.0	7.182095e-01	-2.692760e-02	0.0	7.055412e-01	-2.626456e-02	0.0	6.926729e-01	-2.559105e-02	0.0	6.796002e-01	-2.547455e-02	0.0	6.663419e-01	-2.553088e-02	0.0	6.529279e-01	-2.589535e-02	0.0	6.393994e-01	-2.717816e-02	0.0	6.257234e-01	-2.847496e-02	0.0	6.120205e-01	-3.058947e-02	0.0	5.982337e-01	-3.300301e-02	0.0	5.843800e-01	-3.563298e-02	0.0	5.705783e-01	-3.898278e-02	0.0	5.566969e-01	-4.235194e-02	0.0	5.428717e-01	-4.619122e-02	0.0	5.290542e-01	-5.026287e-02	0.0	5.152055e-01	-5.436207e-02	0.0	5.013770e-01	-5.860791e-02	0.0	4.875412e-01	-6.285598e-02	0.0	4.736427e-01	-6.685982e-02	0.0	4.597053e-01	-7.064703e-02	0.0	4.458044e-01	-7.442431e-02	0.0	4.317055e-01	-7.710467e-02	0.0	4.176697e-01	-7.975805e-02	0.0	4.036219e-01	-8.172685e-02	0.0	3.895700e-01	-8.296368e-02	0.0	3.756273e-01	-8.418609e-02	0.0	3.617540e-01	-8.418452e-02	0.0	3.480167e-01	-8.418296e-02	0.0	3.344472e-01	-8.365127e-02	0.0	3.210549e-01	-8.265488e-02	0.0	3.078358e-01	-8.164424e-02	0.0	2.948718e-01	-7.992868e-02	0.0	2.820973e-01	-7.823820e-02	0.0	2.695513e-01	-7.637157e-02	0.0	2.572393e-01	-7.434932e-02	0.0	2.451408e-01	-7.236214e-02	0.0	2.332654e-01	-7.039446e-02	0.0	2.216167e-01	-6.846395e-02	0.0	2.101785e-01	-6.671403e-02	0.0	1.989494e-01	-6.518738e-02	0.0	1.879623e-01	-6.369363e-02	0.0	1.771939e-01	-6.244772e-02	0.0	1.666709e-01	-6.125768e-02	0.0	1.564061e-01	-6.003836e-02	0.0	1.464063e-01	-5.874538e-02	0.0	1.366595e-01	-5.748512e-02	0.0	1.272464e-01	-5.576202e-02	0.0	1.181004e-01	-5.398608e-02	0.0	1.092661e-01	-5.200499e-02	0.0	1.008121e-01	-4.953118e-02	0.0	9.260000e-02	-4.712814e-02	0.0	8.477767e-02	-4.434428e-02	0.0	7.722680e-02	-4.152793e-02	0.0	6.994333e-02	-3.870120e-02	0.0	6.296675e-02	-3.575628e-02	0.0	5.620959e-02	-3.290399e-02	0.0	4.969284e-02	-3.008585e-02	0.0	4.338867e-02	-2.735688e-02	0.0	3.731058e-02	-2.467595e-02	0.0	3.143913e-02	-2.207658e-02	0.0	2.584410e-02	-1.939725e-02	0.0	2.048619e-02	-1.672187e-02	0.0	1.543756e-02	-1.390204e-02	0.0	1.073504e-02	-1.090874e-02	0.0	6.358655e-03	-7.788836e-03	0.0	2.544701e-03	-4.271631e-03	0.0	
CELLS 198	594
2	3	4	2	4	5	2	5	6	2	6	7	2	7	8	2	8	9	2	9	10	2	10	11	2	11	12	2	12	13	2	13	14	2	14	15	2	15	16	2	16	17	2	17	18	2	18	19	2	19	20	2	20	21	2	21	22	2	22	23	2	23	24	2	24	25	2	25	26	2	26	27	2	27	28	2	28	29	2	29	30	2	30	31	2	31	32	2	32	33	2	33	34	2	34	35	2	35	36	2	36	37	2	37	38	2	38	39	2	39	40	2	40	41	2	41	42	2	42	43	2	43	44	2	44	45	2	45	46	2	46	47	2	47	48	2	48	49	2	49	50	2	50	51	2	51	52	2	52	53	2	53	54	2	54	55	2	55	56	2	56	57	2	57	58	2	58	59	2	59	60	2	60	61	2	61	62	2	62	63	2	63	64	2	64	65	2	65	66	2	66	67	2	67	68	2	68	69	2	69	70	2	70	71	2	71	72	2	72	73	2	73	74	2	0	1	2	1	2	2	2	3	2	135	136	2	136	137	2	137	138	2	138	139	2	139	140	2	140	141	2	141	142	2	142	143	2	143	144	2	144	145	2	145	146	2	146	147	2	147	148	2	148	149	2	149	150	2	150	151	2	151	152	2	152	153	2	153	154	2	154	155	2	155	156	2	156	157	2	157	158	2	158	159	2	159	160	2	160	161	2	161	162	2	162	163	2	163	164	2	164	165	2	165	166	2	166	167	2	167	168	2	168	169	2	169	170	2	170	171	2	171	172	2	172	173	2	173	174	2	174	175	2	175	176	2	176	177	2	177	178	2	178	179	2	179	180	2	180	181	2	181	182	2	182	183	2	183	184	2	184	185	2	185	186	2	186	187	2	187	188	2	188	189	2	189	190	2	190	191	2	191	192	2	192	193	2	193	194	2	194	195	2	195	196	2	196	197	2	197	0	2	74	75	2	75	76	2	76	77	2	77	78	2	78	79	2	79	80	2	80	81	2	81	82	2	82	83	2	83	84	2	84	85	2	85	86	2	86	87	2	87	88	2	88	89	2	89	90	2	90	91	2	91	92	2	92	93	2	93	94	2	94	95	2	95	96	2	96	97	2	97	98	2	98	99	2	99	100	2	100	101	2	101	102	2	102	103	2	103	104	2	104	105	2	105	106	2	106	107	2	107	108	2	108	109	2	109	110	2	110	111	2	111	112	2	112	113	2	113	114	2	114	115	2	115	116	2	116	117	2	117	118	2	118	119	2	119	120	2	120	121	2	121	122	2	122	123	2	123	124	2	124	125	2	125	126	2	126	127	2	127	128	2	128	129	2	129	130	2	130	131	2	131	132	2	132	133	2	133	134	2	134	135	
CELL_TYPES 198
3	3	3	3	3	3	3	3	3	3	3	3	3	3	3	3	3	3	3	3	3	3	3	3	3	3	3	3	3	3	3	3	3	3	3	3	3	3	3	3	3	3	3	3	3	3	3	3	3	3	3	3	3	3	3	3	3	3	3	3	3	3	3	3	3	3	3	3	3	3	3	3	3	3	3	3	3	3	3	3	3	3	3	3	3	3	3	3	3	3	3	3	3	3	3	3	3	3	3	3	3	3	3	3	3	3	3	3	3	3	3	3	3	3	3	3	3	3	3	3	3	3	3	3	3	3	3	3	3	3	3	3	3	3	3	3	3	3	3	3	3	3	3	3	3	3	3	3	3	3	3	3	3	3	3	3	3	3	3	3	3	3	3	3	3	3	3	3	3	3	3	3	3	3	3	3	3	3	3	3	3	3	3	3	3	3	3	3	3	3	3	3	3	3	3	3	3	3	
POINT_DATA 198

SCALARS Density double 1
LOOKUP_TABLE default
1.539571e+00	1.219975e+00	1.236689e+00	1.157711e+00	1.122674e+00	1.088459e+00	1.072515e+00	1.041425e+00	1.004252e+00	9.464958e-01	8.770880e-01	7.839704e-01	7.469964e-01	7.665746e-01	1.006990e+00	1.217442e+00	1.275942e+00	1.305170e+00	1.327217e+00	1.337791e+00	1.333742e+00	1.337795e+00	1.326510e+00	1.322247e+00	1.313487e+00	1.297218e+00	1.290172e+00	1.269261e+00	1.248385e+00	1.227435e+00	1.194455e+00	1.156858e+00	1.120563e+00	1.077415e+00	1.020551e+00	9.871741e-01	9.072095e-01	8.377637e-01	8.092421e-01	7.486380e-01	7.158583e-01	6.646682e-01	6.126619e-01	5.916895e-01	5.526109e-01	5.313349e-01	5.054105e-01	4.834362e-01	4.736728e-01	4.829039e-01	5.779459e-01	9.209252e-01	1.143675e+00	1.133041e+00	1.153813e+00	1.159058e+00	1.164213e+00	1.170654e+00	1.166431e+00	1.169456e+00	1.166580e+00	1.164086e+00	1.162240e+00	1.155348e+00	1.151976e+00	1.145920e+00	1.138386e+00	1.132521e+00	1.127141e+00	1.118957e+00	1.119058e+00	1.114972e+00	1.117055e+00	1.126862e+00	1.131050e+00	1.142418e+00	1.150547e+00	1.159629e+00	1.168139e+00	1.174092e+00	1.179614e+00	1.184383e+00	1.187961e+00	1.191913e+00	1.195289e+00	1.198429e+00	1.201504e+00	1.204832e+00	1.207286e+00	1.210790e+00	1.213489e+00	1.216382e+00	1.219377e+00	1.222478e+00	1.225344e+00	1.229423e+00	1.230541e+00	1.240860e+00	1.224756e+00	1.236087e+00	1.348276e+00	1.324490e+00	1.331198e+00	1.336585e+00	1.338296e+00	1.341428e+00	1.343365e+00	1.346388e+00	1.348081e+00	1.350597e+00	1.352936e+00	1.354467e+00	1.359493e+00	1.358767e+00	1.365211e+00	1.366601e+00	1.364001e+00	1.368819e+00	1.358592e+00	1.356982e+00	1.346469e+00	1.319462e+00	1.298252e+00	1.263770e+00	1.224876e+00	1.197617e+00	1.149764e+00	1.143638e+00	1.164045e+00	1.178845e+00	1.221998e+00	1.251340e+00	1.276659e+00	1.307527e+00	1.325625e+00	1.334423e+00	1.352365e+00	1.354268e+00	1.355984e+00	1.359067e+00	1.348173e+00	1.351064e+00	1.341635e+00	1.330566e+00	1.322914e+00	1.303190e+00	1.286363e+00	1.266289e+00	1.242590e+00	1.219848e+00	1.107701e+00	7.757334e-01	6.540062e-01	6.570816e-01	6.820920e-01	7.503463e-01	7.770324e-01	8.361574e-01	8.965884e-01	9.223090e-01	9.740529e-01	9.998478e-01	1.044210e+00	1.097782e+00	1.125981e+00	1.163886e+00	1.194801e+00	1.218126e+00	1.243381e+00	1.263287e+00	1.269115e+00	1.275140e+00	1.275960e+00	1.262361e+00	1.250083e+00	1.240337e+00	1.213992e+00	1.204115e+00	1.208454e+00	1.196587e+00	1.222007e+00	1.246539e+00	1.269289e+00	1.312092e+00	1.335953e+00	1.367420e+00	1.396861e+00	1.418482e+00	1.439454e+00	1.457446e+00	1.470236e+00	1.487893e+00	1.504913e+00	1.524130e+00	1.549857e+00	1.581631e+00	1.600308e+00	1.681234e+00	
VECTORS Momentum double
3.258080e+01	2.023908e+02	0.0	1.733054e+02	1.811620e+02	0.0	2.071015e+02	1.787422e+02	0.0	2.397093e+02	1.582963e+02	0.0	2.621289e+02	1.462356e+02	0.0	2.748639e+02	1.301775e+02	0.0	2.844564e+02	1.211994e+02	0.0	2.920996e+02	1.111879e+02	0.0	2.993558e+02	1.015853e+02	0.0	3.030079e+02	8.760615e+01	0.0	3.051915e+02	7.204480e+01	0.0	2.977943e+02	4.802144e+01	0.0	2.929058e+02	2.667977e+01	0.0	2.795470e+02	5.590949e+00	0.0	2.491271e+02	-1.443867e+01	0.0	2.311666e+02	-1.759923e+01	0.0	2.221900e+02	-1.325033e+01	0.0	2.088393e+02	-4.631363e+00	0.0	2.018671e+02	6.933084e+00	0.0	2.012759e+02	1.896047e+01	0.0	2.010074e+02	2.670171e+01	0.0	2.046586e+02	3.691592e+01	0.0	2.075785e+02	4.215999e+01	0.0	2.114433e+02	4.944463e+01	0.0	2.183465e+02	5.727367e+01	0.0	2.244649e+02	6.129399e+01	0.0	2.322547e+02	6.888998e+01	0.0	2.397986e+02	7.379828e+01	0.0	2.476627e+02	7.803589e+01	0.0	2.565157e+02	8.344752e+01	0.0	2.657091e+02	8.620960e+01	0.0	2.754129e+02	8.547499e+01	0.0	2.832187e+02	8.474985e+01	0.0	2.920438e+02	8.190495e+01	0.0	2.952623e+02	7.159274e+01	0.0	3.020555e+02	6.952447e+01	0.0	3.022167e+02	5.415113e+01	0.0	2.979056e+02	3.716619e+01	0.0	2.987433e+02	3.028313e+01	0.0	2.895859e+02	1.441956e+01	0.0	2.858796e+02	6.098803e+00	0.0	2.763647e+02	-6.308791e+00	0.0	2.629005e+02	-1.877869e+01	0.0	2.588996e+02	-2.380299e+01	0.0	2.467333e+02	-3.281457e+01	0.0	2.406039e+02	-3.770420e+01	0.0	2.318872e+02	-4.277366e+01	0.0	2.250363e+02	-4.797088e+01	0.0	2.199527e+02	-4.850999e+01	0.0	2.176987e+02	-4.831136e+01	0.0	2.250238e+02	-5.206764e+01	0.0	2.220122e+02	-4.768105e+01	0.0	2.101638e+02	-4.052532e+01	0.0	1.975453e+02	-3.645173e+01	0.0	1.894994e+02	-2.975923e+01	0.0	1.843386e+02	-2.577202e+01	0.0	1.800383e+02	-2.108649e+01	0.0	1.798838e+02	-1.592712e+01	0.0	1.785372e+02	-1.413563e+01	0.0	1.781622e+02	-1.038339e+01	0.0	1.789118e+02	-8.121956e+00	0.0	1.798065e+02	-5.968886e+00	0.0	1.823669e+02	-3.317509e+00	0.0	1.848365e+02	-2.701778e+00	0.0	1.878667e+02	-1.628902e+00	0.0	1.911062e+02	-9.179797e-01	0.0	1.943426e+02	-1.784529e+00	0.0	1.971675e+02	-2.857314e+00	0.0	2.006474e+02	-4.449938e+00	0.0	2.027543e+02	-8.458064e+00	0.0	2.046359e+02	-1.089980e+01	0.0	2.053312e+02	-1.654957e+01	0.0	2.024974e+02	-2.237426e+01	0.0	1.996616e+02	-2.537304e+01	0.0	1.950033e+02	-2.945111e+01	0.0	1.900581e+02	-3.111526e+01	0.0	1.850877e+02	-3.253790e+01	0.0	1.798241e+02	-3.283252e+01	0.0	1.754593e+02	-3.195367e+01	0.0	1.716496e+02	-3.118866e+01	0.0	1.680343e+02	-3.018322e+01	0.0	1.651493e+02	-2.923115e+01	0.0	1.624249e+02	-2.864966e+01	0.0	1.598951e+02	-2.805300e+01	0.0	1.574463e+02	-2.753064e+01	0.0	1.549987e+02	-2.723788e+01	0.0	1.525270e+02	-2.698699e+01	0.0	1.501072e+02	-2.667692e+01	0.0	1.472999e+02	-2.656496e+01	0.0	1.448565e+02	-2.632620e+01	0.0	1.421085e+02	-2.615673e+01	0.0	1.391101e+02	-2.594778e+01	0.0	1.363204e+02	-2.569814e+01	0.0	1.334534e+02	-2.544258e+01	0.0	1.301848e+02	-2.514393e+01	0.0	1.271644e+02	-2.482226e+01	0.0	1.222585e+02	-2.434733e+01	0.0	1.193262e+02	-2.373889e+01	0.0	1.118672e+02	-2.536547e+01	0.0	1.416977e+02	1.116258e+01	0.0	2.387337e+02	-1.221732e+01	0.0	2.253159e+02	-6.951385e+00	0.0	2.248742e+02	-5.010019e+00	0.0	2.243175e+02	-3.710085e+00	0.0	2.222170e+02	-1.889117e+00	0.0	2.209495e+02	-3.883101e-01	0.0	2.195426e+02	1.180232e+00	0.0	2.182832e+02	2.492703e+00	0.0	2.169562e+02	4.226266e+00	0.0	2.159336e+02	5.667781e+00	0.0	2.143730e+02	7.251819e+00	0.0	2.127837e+02	9.092775e+00	0.0	2.109003e+02	1.054079e+01	0.0	2.091631e+02	1.391838e+01	0.0	2.079167e+02	1.571354e+01	0.0	2.056457e+02	2.068648e+01	0.0	2.055945e+02	2.623541e+01	0.0	2.059034e+02	3.008219e+01	0.0	2.059580e+02	3.851824e+01	0.0	2.094066e+02	4.385335e+01	0.0	2.119622e+02	5.261970e+01	0.0	2.195964e+02	6.272679e+01	0.0	2.324654e+02	6.556383e+01	0.0	2.430365e+02	6.814707e+01	0.0	2.556850e+02	6.629790e+01	0.0	2.676800e+02	5.671336e+01	0.0	2.759200e+02	4.929254e+01	0.0	2.856680e+02	3.040152e+01	0.0	2.847199e+02	1.304972e+01	0.0	2.775997e+02	3.691824e+00	0.0	2.707884e+02	-8.876164e+00	0.0	2.591929e+02	-1.152279e+01	0.0	2.496790e+02	-1.222731e+01	0.0	2.392455e+02	-1.266566e+01	0.0	2.282969e+02	-6.905210e+00	0.0	2.218023e+02	-3.818244e-01	0.0	2.162900e+02	3.393264e+00	0.0	2.102088e+02	1.299212e+01	0.0	2.088199e+02	1.986208e+01	0.0	2.082762e+02	2.601007e+01	0.0	2.086535e+02	3.480092e+01	0.0	2.119592e+02	3.868674e+01	0.0	2.120650e+02	4.587518e+01	0.0	2.159497e+02	5.242255e+01	0.0	2.206699e+02	5.727265e+01	0.0	2.253401e+02	6.458493e+01	0.0	2.332239e+02	6.886639e+01	0.0	2.397210e+02	7.224233e+01	0.0	2.463851e+02	7.544191e+01	0.0	2.541467e+02	7.472723e+01	0.0	2.603806e+02	7.155984e+01	0.0	2.651625e+02	7.302447e+01	0.0	2.684568e+02	6.037041e+01	0.0	2.806211e+02	5.333111e+01	0.0	2.839399e+02	4.680426e+01	0.0	3.034698e+02	3.403736e+01	0.0	3.063781e+02	2.680663e+01	0.0	3.182811e+02	1.279485e+01	0.0	3.263460e+02	-6.031685e-01	0.0	3.264509e+02	-6.188468e+00	0.0	3.321164e+02	-1.885055e+01	0.0	3.305053e+02	-2.473441e+01	0.0	3.317116e+02	-3.487945e+01	0.0	3.311938e+02	-4.415171e+01	0.0	3.269803e+02	-4.576925e+01	0.0	3.252377e+02	-5.104353e+01	0.0	3.212244e+02	-5.287743e+01	0.0	3.176651e+02	-5.239667e+01	0.0	3.145617e+02	-5.227991e+01	0.0	3.113318e+02	-4.970341e+01	0.0	3.094729e+02	-4.467145e+01	0.0	3.095707e+02	-4.216580e+01	0.0	3.097578e+02	-3.904226e+01	0.0	3.110460e+02	-3.545744e+01	0.0	3.139440e+02	-3.636542e+01	0.0	3.155170e+02	-3.915499e+01	0.0	3.170411e+02	-4.069222e+01	0.0	3.192174e+02	-4.996218e+01	0.0	3.177158e+02	-5.997580e+01	0.0	3.143338e+02	-6.526866e+01	0.0	3.117727e+02	-8.053288e+01	0.0	3.036950e+02	-8.892263e+01	0.0	2.960399e+02	-9.563778e+01	0.0	2.865981e+02	-1.044332e+02	0.0	2.758968e+02	-1.048284e+02	0.0	2.662993e+02	-1.079680e+02	0.0	2.556230e+02	-1.081061e+02	0.0	2.460230e+02	-1.050514e+02	0.0	2.370592e+02	-1.025978e+02	0.0	2.280930e+02	-9.962862e+01	0.0	2.191397e+02	-9.667792e+01	0.0	2.090766e+02	-9.635158e+01	0.0	1.956959e+02	-9.571561e+01	0.0	1.789140e+02	-9.414396e+01	0.0	1.534899e+02	-9.103784e+01	0.0	1.192050e+02	-7.917213e+01	0.0	7.007698e+01	-5.464797e+01	0.0	-4.468485e+00	7.908390e+00	0.0	
SCALARS Energy double 1
LOOKUP_TABLE default
3.377729e+05	2.719255e+05	2.768351e+05	2.612452e+05	2.549290e+05	2.481845e+05	2.453214e+05	2.392446e+05	2.319992e+05	2.202744e+05	2.062225e+05	1.865928e+05	1.785381e+05	1.808094e+05	2.272116e+05	2.703230e+05	2.822496e+05	2.878171e+05	2.922135e+05	2.944795e+05	2.936410e+05	2.947342e+05	2.925006e+05	2.918387e+05	2.903864e+05	2.872788e+05	2.862867e+05	2.823387e+05	2.784422e+05	2.746519e+05	2.683639e+05	2.611467e+05	2.541485e+05	2.458478e+05	2.342389e+05	2.279827e+05	2.115828e+05	1.970475e+05	1.914103e+05	1.783927e+05	1.715589e+05	1.605652e+05	1.490611e+05	1.446348e+05	1.358559e+05	1.311728e+05	1.253200e+05	1.204833e+05	1.180219e+05	1.194338e+05	1.385204e+05	2.077117e+05	2.537412e+05	2.508006e+05	2.547732e+05	2.556250e+05	2.565048e+05	2.578493e+05	2.568822e+05	2.575005e+05	2.569140e+05	2.564173e+05	2.561340e+05	2.547757e+05	2.541961e+05	2.530589e+05	2.516121e+05	2.505048e+05	2.495383e+05	2.479160e+05	2.480415e+05	2.472313e+05	2.475542e+05	2.495081e+05	2.501935e+05	2.523842e+05	2.538942e+05	2.555952e+05	2.572140e+05	2.583184e+05	2.593425e+05	2.602398e+05	2.608941e+05	2.616384e+05	2.622654e+05	2.628451e+05	2.634124e+05	2.640376e+05	2.644645e+05	2.651310e+05	2.656167e+05	2.661381e+05	2.666902e+05	2.672650e+05	2.677793e+05	2.685650e+05	2.686609e+05	2.707986e+05	2.671368e+05	2.703944e+05	2.984434e+05	2.927116e+05	2.941148e+05	2.952332e+05	2.954962e+05	2.961028e+05	2.964496e+05	2.970358e+05	2.973366e+05	2.978276e+05	2.982576e+05	2.985156e+05	2.995070e+05	2.992841e+05	3.006109e+05	3.008285e+05	3.002981e+05	3.013631e+05	2.992424e+05	2.990959e+05	2.970577e+05	2.917872e+05	2.879602e+05	2.812647e+05	2.737655e+05	2.686476e+05	2.591005e+05	2.583202e+05	2.624059e+05	2.649861e+05	2.735854e+05	2.790519e+05	2.838504e+05	2.898233e+05	2.930986e+05	2.946514e+05	2.982187e+05	2.983673e+05	2.986960e+05	2.993600e+05	2.971082e+05	2.979022e+05	2.959614e+05	2.938504e+05	2.925016e+05	2.886350e+05	2.855297e+05	2.816809e+05	2.771031e+05	2.727561e+05	2.496217e+05	1.821569e+05	1.583671e+05	1.602347e+05	1.652636e+05	1.804753e+05	1.858979e+05	1.986657e+05	2.114048e+05	2.165258e+05	2.274636e+05	2.325229e+05	2.416687e+05	2.525944e+05	2.580122e+05	2.657052e+05	2.717778e+05	2.763209e+05	2.813239e+05	2.851983e+05	2.862272e+05	2.874642e+05	2.876196e+05	2.848484e+05	2.825091e+05	2.806237e+05	2.752909e+05	2.735115e+05	2.744251e+05	2.717981e+05	2.771276e+05	2.818022e+05	2.861529e+05	2.946725e+05	2.990313e+05	3.051670e+05	3.108030e+05	3.148212e+05	3.187837e+05	3.221361e+05	3.244117e+05	3.277547e+05	3.308626e+05	3.343559e+05	3.390395e+05	3.448442e+05	3.477499e+05	3.646017e+05	
SCALARS Pressure double 1
LOOKUP_TABLE default
1.296500e+05	9.846598e+04	9.863080e+04	9.024267e+04	8.592127e+04	8.227797e+04	8.030042e+04	7.693799e+04	7.289763e+04	6.708724e+04	6.006655e+04	5.142517e+04	4.825435e+04	5.192711e+04	7.851653e+04	9.929959e+04	1.051340e+05	1.084403e+05	1.107374e+05	1.116815e+05	1.112907e+05	1.114281e+05	1.102357e+05	1.096032e+05	1.083958e+05	1.065642e+05	1.054170e+05	1.030164e+05	1.005747e+05	9.800452e+04	9.427963e+04	9.008211e+04	8.606090e+04	8.126157e+04	7.560624e+04	7.172919e+04	6.385131e+04	5.730242e+04	5.428038e+04	4.889819e+04	4.577985e+04	4.123197e+04	3.694659e+04	3.500560e+04	3.192003e+04	3.014354e+04	2.812559e+04	2.629074e+04	2.578791e+04	2.717865e+04	3.694735e+04	7.188661e+04	9.348527e+04	9.319729e+04	9.553119e+04	9.627187e+04	9.695718e+04	9.756815e+04	9.725313e+04	9.755328e+04	9.726655e+04	9.700617e+04	9.672869e+04	9.599484e+04	9.555043e+04	9.484922e+04	9.400872e+04	9.333528e+04	9.266817e+04	9.180581e+04	9.171123e+04	9.128070e+04	9.159037e+04	9.261363e+04	9.319996e+04	9.446041e+04	9.541864e+04	9.647509e+04	9.743985e+04	9.814269e+04	9.879528e+04	9.934597e+04	9.977793e+04	1.002333e+05	1.006315e+05	1.010049e+05	1.013711e+05	1.017566e+05	1.020745e+05	1.024719e+05	1.028055e+05	1.031627e+05	1.035198e+05	1.038864e+05	1.042423e+05	1.046951e+05	1.049387e+05	1.059336e+05	1.047061e+05	1.048889e+05	1.109009e+05	1.094114e+05	1.100447e+05	1.105618e+05	1.108184e+05	1.111625e+05	1.114038e+05	1.117356e+05	1.119487e+05	1.122216e+05	1.125018e+05	1.127085e+05	1.132430e+05	1.132456e+05	1.138752e+05	1.140797e+05	1.138205e+05	1.142184e+05	1.132340e+05	1.128919e+05	1.117383e+05	1.088091e+05	1.061968e+05	1.024232e+05	9.811401e+04	9.495604e+04	8.997452e+04	8.889511e+04	9.100487e+04	9.291806e+04	9.742020e+04	1.008621e+05	1.037507e+05	1.071496e+05	1.093688e+05	1.104871e+05	1.123673e+05	1.127963e+05	1.129886e+05	1.132608e+05	1.122051e+05	1.122888e+05	1.113668e+05	1.101174e+05	1.091429e+05	1.070210e+05	1.050176e+05	1.027718e+05	1.001544e+05	9.759694e+04	8.668286e+04	5.336027e+04	4.019303e+04	3.925910e+04	4.182353e+04	4.733427e+04	5.001368e+04	5.519656e+04	6.080473e+04	6.349260e+04	6.826457e+04	7.103672e+04	7.535966e+04	8.069879e+04	8.384205e+04	8.765742e+04	9.097074e+04	9.350934e+04	9.617380e+04	9.834293e+04	9.908346e+04	9.967566e+04	9.976928e+04	9.841181e+04	9.702337e+04	9.595002e+04	9.328416e+04	9.206474e+04	9.246851e+04	9.149261e+04	9.388097e+04	9.665431e+04	9.921068e+04	1.036863e+05	1.065720e+05	1.099897e+05	1.132922e+05	1.158384e+05	1.182428e+05	1.203529e+05	1.219606e+05	1.239782e+05	1.260379e+05	1.283789e+05	1.315061e+05	1.353482e+05	1.381130e+05	1.458309e+05	
SCALARS Temperature double 1
LOOKUP_TABLE default
2.933615e+02	2.811679e+02	2.778322e+02	2.715452e+02	2.666107e+02	2.633309e+02	2.608223e+02	2.573614e+02	2.528721e+02	2.469174e+02	2.385722e+02	2.285106e+02	2.250341e+02	2.359772e+02	2.716228e+02	2.841381e+02	2.870400e+02	2.894369e+02	2.906583e+02	2.908195e+02	2.906817e+02	2.901588e+02	2.894956e+02	2.887627e+02	2.874862e+02	2.861730e+02	2.846383e+02	2.827390e+02	2.806536e+02	2.781493e+02	2.749656e+02	2.712620e+02	2.675470e+02	2.627439e+02	2.580795e+02	2.531235e+02	2.451843e+02	2.382768e+02	2.336656e+02	2.275366e+02	2.227807e+02	2.161024e+02	2.100796e+02	2.060981e+02	2.012214e+02	1.976315e+02	1.938597e+02	1.894497e+02	1.896566e+02	1.960638e+02	2.227032e+02	2.719280e+02	2.847547e+02	2.865418e+02	2.884298e+02	2.893507e+02	2.901201e+02	2.903420e+02	2.904523e+02	2.905951e+02	2.904553e+02	2.902983e+02	2.899279e+02	2.894445e+02	2.889480e+02	2.883432e+02	2.876794e+02	2.870977e+02	2.864065e+02	2.858165e+02	2.854960e+02	2.851973e+02	2.856311e+02	2.863088e+02	2.870544e+02	2.880417e+02	2.889078e+02	2.898186e+02	2.905845e+02	2.911966e+02	2.917606e+02	2.922054e+02	2.925920e+02	2.929530e+02	2.932859e+02	2.936030e+02	2.939136e+02	2.942160e+02	2.945354e+02	2.948263e+02	2.951285e+02	2.954493e+02	2.957438e+02	2.960384e+02	2.963577e+02	2.966575e+02	2.970774e+02	2.974004e+02	2.978194e+02	2.956044e+02	2.865410e+02	2.877691e+02	2.879764e+02	2.881635e+02	2.884628e+02	2.886831e+02	2.888926e+02	2.891022e+02	2.892901e+02	2.894549e+02	2.896759e+02	2.898802e+02	2.901782e+02	2.903398e+02	2.905759e+02	2.908016e+02	2.906941e+02	2.906836e+02	2.903477e+02	2.898137e+02	2.890920e+02	2.872755e+02	2.849592e+02	2.823325e+02	2.790418e+02	2.762071e+02	2.726096e+02	2.707818e+02	2.723487e+02	2.745831e+02	2.777212e+02	2.807910e+02	2.831043e+02	2.854763e+02	2.874110e+02	2.884354e+02	2.894519e+02	2.901487e+02	2.902756e+02	2.903147e+02	2.899326e+02	2.895281e+02	2.891691e+02	2.883033e+02	2.874050e+02	2.860827e+02	2.843996e+02	2.827297e+02	2.807841e+02	2.787153e+02	2.726095e+02	2.396271e+02	2.140914e+02	2.081380e+02	2.136033e+02	2.197578e+02	2.242229e+02	2.299611e+02	2.362515e+02	2.398153e+02	2.441424e+02	2.475024e+02	2.514093e+02	2.560832e+02	2.593948e+02	2.623666e+02	2.652385e+02	2.674195e+02	2.694529e+02	2.711887e+02	2.719760e+02	2.723089e+02	2.723894e+02	2.715776e+02	2.703759e+02	2.694856e+02	2.676840e+02	2.663519e+02	2.665595e+02	2.663620e+02	2.676296e+02	2.701132e+02	2.722879e+02	2.752882e+02	2.778958e+02	2.802079e+02	2.825381e+02	2.844847e+02	2.861591e+02	2.876701e+02	2.889768e+02	2.902712e+02	2.917562e+02	2.934282e+02	2.955866e+02	2.981108e+02	3.006501e+02	3.021702e+02	
SCALARS Mach double 1
LOOKUP_TABLE default
3.877896e-01	6.113437e-01	6.620119e-01	7.511124e-01	8.167943e-01	8.589156e-01	8.904616e-01	9.331799e-01	9.874460e-01	1.057897e+00	1.154639e+00	1.269665e+00	1.309274e+00	1.184414e+00	7.500532e-01	5.635314e-01	5.136227e-01	4.692736e-01	4.452862e-01	4.420399e-01	4.448168e-01	4.552255e-01	4.681441e-01	4.820841e-01	5.056062e-01	5.289185e-01	5.551776e-01	5.864130e-01	6.193448e-01	6.573117e-01	7.035297e-01	7.549694e-01	8.045615e-01	8.663457e-01	9.243860e-01	9.844364e-01	1.078146e+00	1.158034e+00	1.210858e+00	1.280763e+00	1.334957e+00	1.411277e+00	1.480590e+00	1.526790e+00	1.583907e+00	1.626393e+00	1.671496e+00	1.724914e+00	1.722390e+00	1.645078e+00	1.335841e+00	7.458791e-01	5.532208e-01	5.224548e-01	4.883080e-01	4.709269e-01	4.559876e-01	4.516015e-01	4.494075e-01	4.465550e-01	4.493482e-01	4.524685e-01	4.597570e-01	4.691262e-01	4.785907e-01	4.899160e-01	5.021036e-01	5.125907e-01	5.248341e-01	5.351086e-01	5.406241e-01	5.457271e-01	5.383048e-01	5.265462e-01	5.133654e-01	4.954827e-01	4.793515e-01	4.618887e-01	4.467678e-01	4.343623e-01	4.226603e-01	4.132282e-01	4.048771e-01	3.969410e-01	3.894976e-01	3.822881e-01	3.751083e-01	3.679977e-01	3.603504e-01	3.532594e-01	3.457520e-01	3.376175e-01	3.299887e-01	3.221945e-01	3.135438e-01	3.052163e-01	2.931869e-01	2.836102e-01	2.707166e-01	3.336206e-01	5.224693e-01	5.004708e-01	4.966809e-01	4.932392e-01	4.876934e-01	4.835784e-01	4.796386e-01	4.756678e-01	4.720878e-01	4.689262e-01	4.646607e-01	4.606891e-01	4.548424e-01	4.516449e-01	4.469384e-01	4.424018e-01	4.445671e-01	4.447793e-01	4.514888e-01	4.619853e-01	4.758622e-01	5.094038e-01	5.497679e-01	5.929377e-01	6.439608e-01	6.857512e-01	7.365073e-01	7.614823e-01	7.401034e-01	7.089489e-01	6.636508e-01	6.172146e-01	5.805042e-01	5.409622e-01	5.069644e-01	4.882028e-01	4.689848e-01	4.554231e-01	4.529174e-01	4.521429e-01	4.596644e-01	4.675177e-01	4.743961e-01	4.906545e-01	5.070735e-01	5.304924e-01	5.591767e-01	5.865634e-01	6.173220e-01	6.488664e-01	7.365089e-01	1.142503e+00	1.434355e+00	1.503076e+00	1.439966e+00	1.369454e+00	1.318517e+00	1.253134e+00	1.181272e+00	1.140334e+00	1.090274e+00	1.051039e+00	1.004896e+00	9.487500e-01	9.081856e-01	8.711060e-01	8.345486e-01	8.062331e-01	7.793420e-01	7.559658e-01	7.452218e-01	7.406517e-01	7.395437e-01	7.506696e-01	7.669637e-01	7.789057e-01	8.027637e-01	8.201574e-01	8.174594e-01	8.200269e-01	8.034782e-01	7.704984e-01	7.409404e-01	6.989387e-01	6.610707e-01	6.262194e-01	5.896435e-01	5.577538e-01	5.291619e-01	5.022732e-01	4.780470e-01	4.530038e-01	4.227522e-01	3.862764e-01	3.340810e-01	2.613976e-01	1.597545e-01	1.550424e-02	
SCALARS Pressure_Coefficient double 1
LOOKUP_TABLE default