# vtk DataFile Version 3.0
vtk output
ASCII
DATASET UNSTRUCTURED_GRID
POINTS 1845 double
1.000000e+02	0.000000e+00	0.0	9.917900e+01	1.278772e+01	0.0	9.672949e+01	2.536546e+01	0.0	9.269168e+01	3.752670e+01	0.0	8.713187e+01	4.907176e+01	0.0	8.014136e+01	5.981105e+01	0.0	7.183494e+01	6.956826e+01	0.0	6.234898e+01	7.818315e+01	0.0	5.183926e+01	8.551428e+01	0.0	4.047833e+01	9.144126e+01	0.0	2.845276e+01	9.586679e+01	0.0	1.595999e+01	9.871818e+01	0.0	3.205158e+00	9.994862e+01	0.0	-9.602303e+00	9.953791e+01	0.0	-2.225209e+01	9.749279e+01	0.0	-3.453651e+01	9.384684e+01	0.0	-4.625383e+01	8.865993e+01	0.0	-5.721167e+01	8.201723e+01	0.0	-6.723009e+01	7.402780e+01	0.0	-7.614460e+01	6.482284e+01	0.0	-8.380881e+01	5.455349e+01	0.0	-9.009689e+01	4.338837e+01	0.0	-9.490557e+01	3.151082e+01	0.0	-9.815592e+01	1.911586e+01	0.0	-9.979454e+01	6.407022e+00	0.0	-9.979454e+01	-6.407022e+00	0.0	-9.815592e+01	-1.911586e+01	0.0	-9.490557e+01	-3.151082e+01	0.0	-9.009689e+01	-4.338837e+01	0.0	-8.380881e+01	-5.455349e+01	0.0	-7.614460e+01	-6.482284e+01	0.0	-6.723009e+01	-7.402780e+01	0.0	-5.721167e+01	-8.201723e+01	0.0	-4.625383e+01	-8.865993e+01	0.0	-3.453651e+01	-9.384684e+01	0.0	-2.225209e+01	-9.749279e+01	0.0	-9.602303e+00	-9.953791e+01	0.0	3.205158e+00	-9.994862e+01	0.0	1.595999e+01	-9.871818e+01	0.0	2.845276e+01	-9.586679e+01	0.0	4.047833e+01	-9.144126e+01	0.0	5.183926e+01	-8.551428e+01	0.0	6.234898e+01	-7.818315e+01	0.0	7.183494e+01	-6.956826e+01	0.0	8.014136e+01	-5.981105e+01	0.0	8.713187e+01	-4.907176e+01	0.0	9.269168e+01	-3.752670e+01	0.0	9.672949e+01	-2.536546e+01	0.0	9.917900e+01	-1.278772e+01	0.0	0.000000e+00	0.000000e+00	0.0	3.388620e-03	3.676582e-03	0.0	7.022988e-03	7.355535e-03	0.0	1.137852e-02	1.050911e-02	0.0	1.595945e-02	1.367194e-02	0.0	2.103051e-02	1.643323e-02	0.0	2.631371e-02	1.922749e-02	0.0	3.200537e-02	2.166024e-02	0.0	3.791671e-02	2.412019e-02	0.0	4.416075e-02	2.632958e-02	0.0	5.062969e-02	2.857090e-02	0.0	5.735352e-02	3.076838e-02	0.0	6.428174e-02	3.308298e-02	0.0	7.141483e-02	3.552436e-02	0.0	7.872864e-02	3.816735e-02	0.0	8.625514e-02	4.093077e-02	0.0	9.408781e-02	4.355714e-02	0.0	1.021979e-01	4.611145e-02	0.0	1.106764e-01	4.829241e-02	0.0	1.194453e-01	5.030402e-02	0.0	1.285702e-01	5.184237e-02	0.0	1.379506e-01	5.336249e-02	0.0	1.476445e-01	5.445227e-02	0.0	1.575871e-01	5.556999e-02	0.0	1.677952e-01	5.653607e-02	0.0	1.782570e-01	5.745359e-02	0.0	1.889639e-01	5.838295e-02	0.0	1.999157e-01	5.929544e-02	0.0	2.111056e-01	6.022777e-02	0.0	2.225320e-01	6.114865e-02	0.0	2.341890e-01	6.207122e-02	0.0	2.460718e-01	6.298016e-02	0.0	2.581912e-01	6.361720e-02	0.0	2.705218e-01	6.426533e-02	0.0	2.830654e-01	6.458338e-02	0.0	2.958122e-01	6.463613e-02	0.0	3.087448e-01	6.466296e-02	0.0	3.218344e-01	6.392416e-02	0.0	3.350905e-01	6.317595e-02	0.0	3.484854e-01	6.218817e-02	0.0	3.620084e-01	6.097084e-02	0.0	3.756633e-01	5.974162e-02	0.0	3.894412e-01	5.853933e-02	0.0	4.033257e-01	5.732778e-02	0.0	4.173206e-01	5.635358e-02	0.0	4.314129e-01	5.562832e-02	0.0	4.455709e-01	5.489967e-02	0.0	4.597981e-01	5.472431e-02	0.0	4.740623e-01	5.455052e-02	0.0	4.883492e-01	5.449116e-02	0.0	5.026440e-01	5.454340e-02	0.0	5.169314e-01	5.459360e-02	0.0	5.311965e-01	5.452788e-02	0.0	5.454246e-01	5.446234e-02	0.0	5.595979e-01	5.420508e-02	0.0	5.737023e-01	5.377500e-02	0.0	5.877264e-01	5.333965e-02	0.0	6.016430e-01	5.257970e-02	0.0	6.154526e-01	5.182559e-02	0.0	6.291340e-01	5.094710e-02	0.0	6.426751e-01	4.995183e-02	0.0	6.560721e-01	4.896716e-02	0.0	6.692992e-01	4.781486e-02	0.0	6.823599e-01	4.667362e-02	0.0	6.952385e-01	4.548629e-02	0.0	7.079240e-01	4.423753e-02	0.0	7.204150e-01	4.300793e-02	0.0	7.326920e-01	4.169009e-02	0.0	7.447575e-01	4.038273e-02	0.0	7.566012e-01	3.905561e-02	0.0	7.682147e-01	3.769041e-02	0.0	7.795997e-01	3.635170e-02	0.0	7.907390e-01	3.493755e-02	0.0	8.016412e-01	3.355350e-02	0.0	8.122926e-01	3.212291e-02	0.0	8.226969e-01	3.069435e-02	0.0	8.328489e-01	2.925010e-02	0.0	8.427466e-01	2.778695e-02	0.0	8.523939e-01	2.634206e-02	0.0	8.617827e-01	2.486483e-02	0.0	8.709239e-01	2.342656e-02	0.0	8.798090e-01	2.197126e-02	0.0	8.884466e-01	2.054478e-02	0.0	8.968367e-01	1.914033e-02	0.0	9.049790e-01	1.774294e-02	0.0	9.128813e-01	1.638672e-02	0.0	9.205404e-01	1.503690e-02	0.0	9.279641e-01	1.372163e-02	0.0	9.351546e-01	1.243460e-02	0.0	9.421138e-01	1.116657e-02	0.0	9.488494e-01	9.938696e-03	0.0	9.553601e-01	8.721729e-03	0.0	9.616554e-01	7.545002e-03	0.0	9.677358e-01	6.386356e-03	0.0	9.736090e-01	5.263348e-03	0.0	9.792767e-01	4.159588e-03	0.0	9.847457e-01	3.086660e-03	0.0	9.900197e-01	2.037678e-03	0.0	9.951028e-01	1.008476e-03	0.0	1.000000e+00	0.000000e+00	0.0	9.950045e-01	2.092591e-04	0.0	9.898217e-01	4.163528e-04	0.0	9.844453e-01	5.723452e-04	0.0	9.788709e-01	6.817156e-04	0.0	9.730944e-01	7.656143e-04	0.0	9.671109e-01	7.885548e-04	0.0	9.609164e-01	7.883967e-04	0.0	9.545064e-01	7.208584e-04	0.0	9.478767e-01	6.375810e-04	0.0	9.410244e-01	4.571235e-04	0.0	9.339438e-01	2.706538e-04	0.0	9.266347e-01	-2.269843e-05	0.0	9.190907e-01	-3.498133e-04	0.0	9.113110e-01	-7.463855e-04	0.0	9.032951e-01	-1.260185e-03	0.0	8.950349e-01	-1.789647e-03	0.0	8.865434e-01	-2.533981e-03	0.0	8.778062e-01	-3.330672e-03	0.0	8.688329e-01	-4.275348e-03	0.0	8.596298e-01	-5.434512e-03	0.0	8.501776e-01	-6.634008e-03	0.0	8.405233e-01	-8.201046e-03	0.0	8.306204e-01	-9.808454e-03	0.0	8.204903e-01	-1.157671e-02	0.0	8.101217e-01	-1.342937e-02	0.0	7.995045e-01	-1.529549e-02	0.0	7.886411e-01	-1.717214e-02	0.0	7.775339e-01	-1.904952e-02	0.0	7.661634e-01	-2.078178e-02	0.0	7.545637e-01	-2.254894e-02	0.0	7.427334e-01	-2.430412e-02	0.0	7.306834e-01	-2.607755e-02	0.0	7.184323e-01	-2.794478e-02	0.0	7.060060e-01	-3.002027e-02	0.0	6.933852e-01	-3.212825e-02	0.0	6.806468e-01	-3.462916e-02	0.0	6.677617e-01	-3.731654e-02	0.0	6.547258e-01	-4.009897e-02	0.0	6.416357e-01	-4.335052e-02	0.0	6.284042e-01	-4.663722e-02	0.0	6.150467e-01	-4.997135e-02	0.0	6.015749e-01	-5.334818e-02	0.0	5.879984e-01	-5.675128e-02	0.0	5.742241e-01	-5.972063e-02	0.0	5.603661e-01	-6.268617e-02	0.0	5.463750e-01	-6.528763e-02	0.0	5.322355e-01	-6.735754e-02	0.0	5.180591e-01	-6.943285e-02	0.0	5.037716e-01	-7.074516e-02	0.0	4.894670e-01	-7.197615e-02	0.0	4.751540e-01	-7.296428e-02	0.0	4.608411e-01	-7.361024e-02	0.0	4.465654e-01	-7.425451e-02	0.0	4.323316e-01	-7.459935e-02	0.0	4.181635e-01	-7.492158e-02	0.0	4.040747e-01	-7.515355e-02	0.0	3.900787e-01	-7.527676e-02	0.0	3.761907e-01	-7.539902e-02	0.0	3.624237e-01	-7.530512e-02	0.0	3.487905e-01	-7.520396e-02	0.0	3.353051e-01	-7.498194e-02	0.0	3.219793e-01	-7.462423e-02	0.0	3.088217e-01	-7.427103e-02	0.0	2.958540e-01	-7.362657e-02	0.0	2.830748e-01	-7.297933e-02	0.0	2.705038e-01	-7.217125e-02	0.0	2.581520e-01	-7.116176e-02	0.0	2.460126e-01	-7.016962e-02	0.0	2.341361e-01	-6.876733e-02	0.0	2.224888e-01	-6.734777e-02	0.0	2.111001e-01	-6.576165e-02	0.0	1.999976e-01	-6.385484e-02	0.0	1.891324e-01	-6.198878e-02	0.0	1.785776e-01	-5.980592e-02	0.0	1.682846e-01	-5.757100e-02	0.0	1.582465e-01	-5.534039e-02	0.0	1.485045e-01	-5.294349e-02	0.0	1.390071e-01	-5.060680e-02	0.0	1.297661e-01	-4.828553e-02	0.0	1.207780e-01	-4.599302e-02	0.0	1.120338e-01	-4.376272e-02	0.0	1.035227e-01	-4.163299e-02	0.0	9.525326e-02	-3.956404e-02	0.0	8.722482e-02	-3.755013e-02	0.0	7.943527e-02	-3.559021e-02	0.0	7.188157e-02	-3.368545e-02	0.0	6.458323e-02	-3.174828e-02	0.0	5.751281e-02	-2.987160e-02	0.0	5.071214e-02	-2.789377e-02	0.0	4.414374e-02	-2.593351e-02	0.0	3.786854e-02	-2.379832e-02	0.0	3.183068e-02	-2.164517e-02	0.0	2.615345e-02	-1.917142e-02	0.0	2.074204e-02	-1.662893e-02	0.0	1.572466e-02	-1.376511e-02	0.0	1.106376e-02	-1.071883e-02	0.0	6.715491e-03	-7.555964e-03	0.0	2.908562e-03	-4.033011e-03	0.0	3.705667e-01	-1.111092e-01	0.0	3.544064e-01	-1.039966e-01	0.0	3.549667e-01	-1.229789e-01	0.0	8.657724e+01	2.668626e+01	0.0	8.178363e+01	3.570364e+01	0.0	7.571843e+01	2.499470e+01	0.0	7.178882e+01	-1.147413e+01	0.0	7.440867e+01	-2.438767e+01	0.0	8.602882e+01	-1.534607e+01	0.0	9.123271e+01	-4.561277e+00	0.0	2.718291e+01	2.304635e+01	0.0	3.791511e+01	2.686216e+01	0.0	2.998691e+01	3.382393e+01	0.0	7.262779e+01	3.403884e+01	0.0	6.773672e+01	-3.603213e+01	0.0	7.549775e+01	-4.389849e+01	0.0	8.077887e+01	-3.634583e+01	0.0	8.612750e+01	-2.779435e+01	0.0	5.610193e+01	2.336024e+01	0.0	4.850753e+01	2.995161e+01	0.0	4.602035e+01	1.989788e+01	0.0	5.606283e+01	-5.359546e+01	0.0	6.214423e+01	-5.995261e+01	0.0	6.578637e+01	-5.454511e+01	0.0	6.837183e+01	5.955909e+01	0.0	7.263477e+01	5.052528e+01	0.0	5.810390e+01	6.613660e+01	0.0	4.896518e+01	-6.319744e+01	0.0	4.376137e+01	-7.265341e+01	0.0	5.441851e+01	-7.170554e+01	0.0	6.640122e+01	-4.662248e+01	0.0	5.175194e+01	7.536473e+01	0.0	2.665389e+01	5.270445e+01	0.0	2.021818e+01	6.287086e+01	0.0	1.633978e+01	5.062393e+01	0.0	6.279385e+01	-6.751261e+01	0.0	2.873269e+01	7.362417e+01	0.0	4.080101e+01	7.881333e+01	0.0	3.039206e+01	8.510280e+01	0.0	3.144781e+01	-7.186246e+01	0.0	2.344981e+01	-7.964689e+01	0.0	3.685700e+01	-8.107676e+01	0.0	1.154401e+01	4.057484e+01	0.0	8.630742e-01	4.283251e+01	0.0	4.334678e+00	3.068905e+01	0.0	8.705030e+00	7.649427e+01	0.0	1.796396e+01	7.399716e+01	0.0	1.568861e+01	8.162478e+01	0.0	7.551980e+00	4.902978e+01	0.0	4.448745e+00	-1.907087e+00	0.0	4.543092e+00	-1.254955e-01	0.0	3.525194e+00	-1.092014e+00	0.0	1.599654e+00	4.690442e-01	0.0	1.453877e+00	7.309780e-01	0.0	1.406553e+00	4.663803e-01	0.0	1.653581e+00	1.030645e+00	0.0	1.627898e+00	1.528821e+00	0.0	1.236228e+00	1.133379e+00	0.0	1.237560e+00	5.689890e-01	0.0	1.179201e+00	7.943514e-01	0.0	1.028729e+00	6.459405e-01	0.0	1.075036e+00	-3.847832e-04	0.0	1.057218e+00	1.073760e-02	0.0	1.051646e+00	-6.197000e-03	0.0	9.871565e-01	7.396135e-03	0.0	9.919325e-01	5.234887e-03	0.0	9.996391e-01	4.604006e-03	0.0	9.957214e-01	6.280257e-03	0.0	9.925928e-01	1.001824e-02	0.0	9.948262e-01	1.654026e-02	0.0	9.973097e-01	2.420763e-02	0.0	9.893609e-01	2.251997e-02	0.0	9.781449e-01	8.387834e-03	0.0	9.824057e-01	6.609939e-03	0.0	9.693321e-01	2.435775e-02	0.0	9.739169e-01	3.285557e-02	0.0	9.648097e-01	3.036854e-02	0.0	1.008095e+00	1.085160e-01	0.0
[...]
POINT_DATA 1845

SCALARS Density double 1
LOOKUP_TABLE default
1.291747e+00	1.291799e+00	1.292065e+00	1.292162e+00	1.292091e+00	1.292028e+00	1.291983e+00	1.291920e+00	1.291850e+00	1.291781e+00	1.291727e+00	1.291704e+00	1.291709e+00	1.291762e+00	1.291853e+00	1.291945e+00	1.292032e+00	1.292099e+00	1.292152e+00	1.292190e+00	1.292221e+00	1.292242e+00	1.292258e+00	1.292272e+00	1.292283e+00	1.292295e+00	1.292307e+00	1.292322e+00	1.292338e+00	1.292361e+00	1.292389e+00	1.292426e+00	1.292477e+00	1.292537e+00	1.292613e+00	1.292694e+00	1.292783e+00	1.292849e+00	1.292863e+00	1.292840e+00	1.292787e+00	1.292715e+00	1.292640e+00	1.292564e+00	1.292492e+00	1.292431e+00	1.292421e+00	1.292320e+00	1.292022e+00	1.557408e+00	1.208209e+00	1.228289e+00	1.180654e+00	1.148564e+00	1.122485e+00	1.102710e+00	1.091094e+00	1.098070e+00	1.110732e+00	1.139764e+00	1.159230e+00	1.168864e+00	1.166437e+00	1.143229e+00	1.087879e+00	1.025809e+00	9.603194e-01	8.970304e-01	8.389650e-01	7.995927e-01	7.700113e-01	7.490244e-01	7.463248e-01	7.407206e-01	7.445817e-01	7.529782e-01	7.615246e-01	7.696886e-01	7.789710e-01	7.884274e-01	7.815919e-01	7.731216e-01	7.614028e-01	7.379022e-01	7.293664e-01	6.972795e-01	6.626097e-01	6.552669e-01	6.405557e-01	6.344050e-01	6.412230e-01	6.486914e-01	6.604719e-01	6.848119e-01	7.428669e-01	9.764618e-01	1.202611e+00	1.200770e+00	1.189063e+00	1.174029e+00	1.156335e+00	1.141987e+00	1.128977e+00	1.115254e+00	1.112800e+00	1.106886e+00	1.106451e+00	1.113995e+00	1.115321e+00	1.121576e+00	1.124813e+00	1.129886e+00	1.138755e+00	1.142226e+00	1.148261e+00	1.153084e+00	1.157908e+00	1.164853e+00	1.168528e+00	1.174171e+00	1.177888e+00	1.182731e+00	1.188693e+00	1.192982e+00	1.199262e+00	1.204448e+00	1.211300e+00	1.217232e+00	1.223951e+00	1.230910e+00	1.236722e+00	1.244117e+00	1.249603e+00	1.256077e+00	1.262047e+00	1.267715e+00	1.274433e+00	1.279798e+00	1.286134e+00	1.292038e+00	1.298431e+00	1.305420e+00	1.312212e+00	1.320343e+00	1.328516e+00	1.340473e+00	1.352076e+00	1.377029e+00	1.362404e+00	1.435112e+00	1.422723e+00	1.420333e+00	1.422282e+00	1.422941e+00	1.423788e+00	1.424312e+00	1.425849e+00	1.425959e+00	1.426859e+00	1.428030e+00	1.427295e+00	1.429844e+00	1.428376e+00	1.431660e+00	1.432296e+00	1.430102e+00	1.432854e+00	1.427614e+00	1.429259e+00	1.424499e+00	1.414267e+00	1.407623e+00	1.395448e+00	1.384999e+00	1.375880e+00	1.364522e+00	1.360148e+00	1.359859e+00	1.358240e+00	1.361498e+00	1.366342e+00	1.365714e+00	1.370227e+00	1.370728e+00	1.360283e+00	1.358935e+00	1.347278e+00	1.323060e+00	1.304149e+00	1.280483e+00	1.242216e+00	1.212215e+00	1.178334e+00	1.132938e+00	1.106579e+00	1.069772e+00	1.058992e+00	1.072012e+00	1.071907e+00	1.089440e+00	1.100956e+00	1.113028e+00	1.128617e+00	1.135139e+00	1.141505e+00	1.139966e+00	1.141773e+00	1.144623e+00	1.143196e+00	1.146445e+00	1.140820e+00	1.141655e+00	1.145180e+00	1.142489e+00	1.148938e+00	1.144117e+00	1.150082e+00	1.164431e+00	1.166039e+00	1.185739e+00	1.199678e+00	1.216014e+00	1.246253e+00	1.261990e+00	1.283216e+00	1.307005e+00	1.323149e+00	1.340377e+00	1.356409e+00	1.368888e+00	1.377906e+00	1.386749e+00	1.395256e+00	1.400269e+00	1.407817e+00	1.413741e+00	1.420961e+00	1.428844e+00	1.439641e+00	1.450466e+00	1.468724e+00	1.493133e+00	1.518130e+00	1.555491e+00	1.597637e+00	1.606023e+00	1.699833e+00	1.159383e+00	1.158099e+00	1.167094e+00	1.292104e+00	1.292105e+00	1.292073e+00	1.292196e+00	1.292378e+00	1.292187e+00	1.291935e+00	1.291709e+00	1.291891e+00	1.291678e+00	1.292092e+00	1.292457e+00	1.292448e+00	1.292400e+00	1.292364e+00	1.292055e+00	1.291966e+00	1.291993e+00	1.292597e+00	1.292584e+00	1.292541e+00	1.291978e+00	1.292017e+00	1.291909e+00	1.292685e+00	1.292751e+00	1.292667e+00	1.292499e+00	1.291856e+00	1.291574e+00	1.291540e+00	1.291374e+00	1.292604e+00	1.291678e+00	1.291778e+00	1.291717e+00	1.292858e+00	1.292893e+00	1.292811e+00	1.291119e+00	1.290962e+00	1.290552e+00	1.291560e+00	1.291590e+00	1.291615e+00	1.291192e+00	1.296900e+00	1.289671e+00	1.296786e+00	1.294696e+00	1.285770e+00	1.294589e+00	1.285589e+00	1.279085e+00	1.271108e+00	1.284413e+00	1.276369e+00	1.268200e+00	1.333120e+00	1.326645e+00	1.347466e+00	1.341080e+00	1.355011e+00	1.390795e+00	1.353812e+00	1.351803e+00	1.343562e+00	1.335584e+00	1.330910e+00	1.325394e+00	1.333137e+00	1.309156e+00	1.310197e+00	1.302759e+00	1.305088e+00	1.290350e+00	1.289061e+00	1.309522e+00	1.286801e+00	1.293260e+00	1.291366e+00	1.299964e+00	1.293826e+00	1.289434e+00	1.283166e+00	1.270844e+00	1.257464e+00	1.255100e+00	1.277464e+00	1.271437e+00	1.266222e+00	1.259945e+00	1.256681e+00	1.254666e+00	1.229356e+00	1.241192e+00	1.244193e+00	1.235304e+00	1.231196e+00	1.220020e+00	1.215230e+00	1.221457e+00	1.226657e+00	1.213001e+00	1.208715e+00	1.210794e+00	1.219313e+00	1.196146e+00	1.198984e+00	1.202754e+00	1.242589e+00	1.237544e+00	1.209622e+00	1.177414e+00	1.193280e+00	1.202015e+00	1.181419e+00	1.183904e+00	1.176508e+00	1.173810e+00	1.171540e+00	1.291379e+00	1.163369e+00	1.163383e+00	1.158117e+00	1.157062e+00	1.153611e+00	1.151939e+00	1.147331e+00	1.144122e+00	1.150110e+00	1.409819e+00	1.413920e+00	1.415732e+00	1.426594e+00	1.424828e+00	1.420740e+00	1.271989e+00	1.290895e+00	1.267050e+00	1.241279e+00	1.218293e+00	1.137497e+00	1.134917e+00	1.142693e+00	1.418839e+00	1.418827e+00	1.421692e+00	1.426953e+00	1.424167e+00	1.426802e+00	1.455162e+00	1.468864e+00	1.019129e+00	1.069954e+00	9.815552e-01	7.910540e-01	7.594743e-01	9.598271e-01	9.557139e-01	1.008660e+00	1.352466e+00	1.355610e+00	1.344904e+00	1.235665e+00	1.200793e+00	1.203090e+00	1.319980e+00	1.338370e+00	1.134090e+00	1.357426e+00	1.355216e+00	1.350369e+00	1.194168e+00	1.237155e+00	1.196962e+00	1.349637e+00	1.353199e+00	1.100234e+00	1.102160e+00	1.134942e+00	1.199535e+00	1.200876e+00	1.200742e+00	1.179430e+00	1.161061e+00	1.159917e+00	1.148207e+00	1.194477e+00	1.154140e+00	1.117994e+00	1.154219e+00	1.136204e+00	1.134176e+00	1.191627e+00	1.057109e+00	1.018078e+00	1.121334e+00	1.120240e+00	1.126903e+00	1.014611e+00	7.231085e-01	9.502533e-01	1.415094e+00	1.410113e+00	1.410757e+00	1.424009e+00	1.422322e+00	1.118667e+00	1.115370e+00	1.424117e+00	1.205521e+00	1.146442e+00	1.128508e+00	1.122761e+00	1.128773e+00	7.772765e-01	7.600835e-01	8.281531e-01	1.291138e+00	6.712292e-01	7.196192e-01	1.421616e+00	1.423555e+00	1.419424e+00	1.422206e+00	1.424596e+00	1.425452e+00	6.749312e-01	6.518338e-01	6.519340e-01	1.415660e+00	1.419270e+00	1.417816e+00	1.121750e+00	1.127756e+00	1.122702e+00	1.125949e+00	1.138368e+00	6.492643e-01	6.464965e-01	6.452619e-01	6.690774e-01	6.459033e-01	6.494201e-01	1.291836e+00	1.291726e+00	7.660008e-01	7.228126e-01	6.901127e-01	7.237923e-01	6.795181e-01	8.333674e-01	8.118919e-01	8.156411e-01	6.613134e-01	7.403875e-01	7.679680e-01	7.725727e-01	7.876442e-01	8.136657e-01	8.235811e-01	8.047061e-01	7.974078e-01	8.077568e-01	8.006027e-01	7.938102e-01	7.894707e-01	1.062151e+00	1.084295e+00	1.175757e+00	7.853498e-01	8.007657e-01	7.934094e-01	1.291725e+00	8.078693e-01	7.876985e-01	8.230196e-01	7.581234e-01	7.655234e-01	7.627287e-01	1.291907e+00	1.277500e+00	1.278218e+00	1.264421e+00	1.129757e+00	9.081772e-01	9.064474e-01	9.770780e-01	1.195106e+00	1.146486e+00	1.192863e+00	1.026069e+00	1.067971e+00	1.105809e+00	1.292011e+00	1.177728e+00	1.173145e+00	1.224602e+00	1.292142e+00	1.291207e+00	1.291630e+00	1.291753e+00	1.291690e+00	1.291911e+00	1.291224e+00	1.292422e+00	1.292194e+00	1.292108e+00	1.292170e+00	1.292140e+00	1.221851e+00	1.191627e+00	1.217224e+00	1.292262e+00	1.292236e+00	1.292257e+00	1.292201e+00	1.292200e+00	1.292294e+00	1.292314e+00	1.292327e+00	1.292342e+00	1.292390e+00	1.292374e+00	1.292427e+00	1.292373e+00	1.292358e+00	1.292454e+00	1.292468e+00	1.292412e+00	1.292265e+00	1.292155e+00	1.292534e+00	1.293812e+00	1.293562e+00	1.294110e+00	1.292527e+00	1.297098e+00	1.296322e+00	1.300131e+00	1.295944e+00	1.298391e+00	1.297956e+00	1.292592e+00	1.292626e+00	1.301385e+00	1.304632e+00	1.305973e+00	1.293158e+00	1.293272e+00	1.292816e+00	1.292677e+00	1.292761e+00	1.421466e+00	1.449690e+00	1.414493e+00	1.465286e+00	1.431397e+00	1.326847e+00	1.320246e+00	1.337482e+00	1.292967e+00	1.292979e+00	1.293054e+00	1.352407e+00	1.351575e+00	1.367276e+00	1.511750e+00	1.487171e+00	1.473468e+00	1.613096e+00	1.581415e+00	1.562483e+00	1.386563e+00	1.375769e+00	1.383796e+00	1.394357e+00	1.401756e+00	1.364156e+00	1.370536e+00	1.379890e+00	1.396524e+00	1.387701e+00	1.388907e+00	1.412308e+00	1.419760e+00	1.388536e+00	1.417659e+00	1.416657e+00	1.411446e+00	1.424342e+00	1.428429e+00	1.428766e+00	1.445556e+00	1.458180e+00	1.443857e+00	1.497195e+00	1.510954e+00	1.487714e+00	1.362641e+00	1.360771e+00	1.360164e+00	1.361265e+00	1.361129e+00	1.360867e+00	1.362740e+00	1.361367e+00	1.363862e+00	1.352759e+00	1.350341e+00	1.340349e+00	1.305525e+00	1.307753e+00	1.305626e+00	1.095931e+00	1.100626e+00	1.112013e+00	1.105779e+00	1.089168e+00	1.103130e+00	1.117785e+00	1.128302e+00	1.131857e+00	1.517834e+00	1.539271e+00	1.534265e+00	1.414768e+00	1.420702e+00	1.423339e+00	1.362408e+00	1.355681e+00	1.351829e+00	1.413011e+00	1.403083e+00	1.388430e+00	1.397513e+00	1.408497e+00	1.392442e+00	1.385297e+00	1.329506e+00	1.315043e+00	1.371809e+00	1.378988e+00	1.379715e+00	1.388954e+00	1.292873e+00	1.296564e+00	1.289221e+00	1.276069e+00	1.142675e+00	1.292884e+00	1.292845e+00	1.140343e+00	1.142125e+00	1.199816e+00	1.266596e+00	1.199200e+00	1.219517e+00	1.219340e+00	1.259611e+00	1.246463e+00	1.278162e+00	1.268238e+00	1.180753e+00	1.180177e+00	1.197851e+00	1.171887e+00	1.184045e+00	1.183679e+00	1.293359e+00	1.293205e+00	1.293290e+00	1.169429e+00	1.212968e+00	1.248330e+00	1.236440e+00	1.142396e+00	1.155527e+00	1.163629e+00	1.256434e+00	1.255423e+00	1.280255e+00	1.156443e+00	1.153029e+00	1.151840e+00	1.147038e+00	1.151578e+00	1.149953e+00	1.145911e+00	1.154642e+00	1.168454e+00	1.177033e+00	1.152946e+00	1.147719e+00	1.147136e+00	1.292278e+00	1.292425e+00	1.291514e+00	1.291331e+00	1.292043e+00	1.292014e+00	1.292883e+00	1.292886e+00	1.293606e+00	1.419054e+00	1.416322e+00	1.420525e+00	1.293031e+00	1.293260e+00	1.293783e+00	1.292714e+00	1.292732e+00	1.292933e+00	1.291804e+00	1.291933e+00	1.291984e+00	1.292737e+00	1.292620e+00	1.291812e+00	1.291739e+00	1.291672e+00	1.291643e+00	1.291978e+00	1.291854e+00	1.291935e+00	1.292035e+00	1.291943e+00	1.292545e+00	1.292485e+00	1.291942e+00	1.292129e+00	1.292166e+00	1.292928e+00	1.293272e+00	1.292009e+00	1.291979e+00	1.267924e+00	1.284656e+00	1.273447e+00	1.292141e+00	1.293272e+00	1.293652e+00	1.292243e+00	1.291916e+00	1.290269e+00	1.291194e+00	1.291469e+00	1.288036e+00	1.289556e+00	1.288612e+00	1.292491e+00	1.292706e+00	1.292553e+00	1.292279e+00	1.292314e+00	1.292318e+00	1.292239e+00	1.292231e+00	1.292198e+00	1.292100e+00	1.292161e+00	1.292057e+00	1.291677e+00	1.291638e+00	1.292904e+00	1.292935e+00	1.292060e+00	1.292011e+00	1.291935e+00	1.291723e+00	1.291684e+00	1.291794e+00	1.291861e+00	1.291932e+00	1.291991e+00	1.291987e+00	1.292365e+00	1.292443e+00	1.293019e+00	1.292884e+00	1.292748e+00	1.292950e+00	1.293068e+00	1.292472e+00	1.292425e+00	1.291902e+00	1.291598e+00	1.291578e+00	1.292488e+00	1.292299e+00	1.292836e+00	1.293048e+00	1.294121e+00	1.293397e+00	1.293367e+00	1.291831e+00	1.293178e+00	1.293061e+00	1.293028e+00	1.293165e+00	1.293077e+00	1.291760e+00	1.291558e+00	1.291725e+00	1.292370e+00	1.292376e+00	1.292586e+00	1.292504e+00	1.291445e+00	1.292487e+00	1.291827e+00	1.292108e+00	1.294557e+00	1.293838e+00	1.294658e+00	1.291814e+00	1.296014e+00	1.296325e+00	1.296263e+00	1.294863e+00	1.295356e+00	1.290325e+00	1.290411e+00	1.228110e+00	1.223065e+00	1.292029e+00	1.291975e+00	1.292298e+00	1.291607e+00	1.292217e+00	1.292307e+00	1.292360e+00	1.292398e+00	1.292404e+00	1.292062e+00	1.291947e+00	1.292950e+00	1.292911e+00	1.291460e+00	1.292956e+00	1.292997e+00	1.292846e+00	1.291657e+00	1.291975e+00	1.291943e+00	1.292019e+00	1.292079e+00	1.292476e+00	1.292527e+00	1.292627e+00	1.292626e+00	1.292713e+00	1.292284e+00	1.292902e+00	1.292721e+00	1.291783e+00	1.292505e+00	1.291491e+00	1.292605e+00	1.291924e+00	1.291870e+00	1.291998e+00	1.292484e+00	1.292652e+00	1.292530e+00	1.290922e+00	1.291274e+00	1.291301e+00	1.294181e+00	1.122171e+00	1.292523e+00	1.292603e+00	1.292513e+00	1.291859e+00	1.292060e+00	1.292014e+00	1.293042e+00	1.291633e+00	1.292802e+00	1.291833e+00	1.291563e+00	1.292847e+00	1.292685e+00	1.292725e+00	1.291835e+00	1.291759e+00	1.291670e+00	1.292344e+00	1.292448e+00	1.292604e+00	1.292164e+00	1.291497e+00	1.288184e+00	1.290332e+00	1.292449e+00	1.294471e+00	1.292845e+00	1.289357e+00	1.295170e+00	1.293572e+00	1.294761e+00	1.291053e+00	1.289990e+00	1.291105e+00	1.291596e+00	1.291121e+00	1.291365e+00	1.293919e+00	1.292933e+00	1.296285e+00	1.297829e+00	1.287858e+00	1.290697e+00	1.324149e+00	1.344256e+00	1.356973e+00	1.294651e+00	1.298531e+00	1.297665e+00	1.301217e+00	1.292929e+00	1.286198e+00	1.284424e+00	1.135121e+00	1.290940e+00	1.298507e+00	1.246457e+00	1.229238e+00	1.232126e+00	1.290985e+00	1.290564e+00	1.294815e+00	1.225526e+00	1.205744e+00	1.252457e+00	1.290340e+00	1.293276e+00	1.295391e+00	1.420321e+00	1.417060e+00	1.280288e+00	1.283606e+00	7.775412e-01	7.784046e-01	1.285155e+00	1.289665e+00	1.293515e+00	1.288386e+00	1.296526e+00	1.188159e+00	1.195927e+00	1.149022e+00	1.301332e+00	1.304111e+00	1.284698e+00	1.285061e+00	1.294285e+00	1.292865e+00	1.291910e+00	1.290062e+00	1.339070e+00	1.328021e+00	1.337043e+00	1.292216e+00	1.277352e+00	1.287992e+00	1.289925e+00	1.299629e+00	1.287802e+00	1.258031e+00	1.268953e+00	1.289517e+00	1.289967e+00	1.302481e+00	7.509193e-01	7.552941e-01	1.278272e+00	1.298118e+00	1.291643e+00	1.306881e+00	1.288128e+00	1.300310e+00	1.306564e+00	1.302185e+00	1.316082e+00	1.310010e+00	1.318999e+00	1.300820e+00	1.300253e+00	1.302861e+00	1.302995e+00	1.269786e+00	1.285123e+00	1.288610e+00	1.291444e+00	1.302821e+00	1.294821e+00	1.289897e+00	1.295313e+00	1.305436e+00	1.300947e+00	1.193397e+00	1.190566e+00	1.309423e+00	1.312741e+00	1.311979e+00	1.281123e+00	1.264405e+00	1.290774e+00	1.298745e+00	1.290857e+00	1.289322e+00	1.290186e+00	1.310885e+00	1.324694e+00	1.317832e+00	1.420305e+00	1.417664e+00	1.456004e+00	1.322767e+00	1.328642e+00	1.353033e+00	1.317890e+00	1.300335e+00	1.261626e+00	1.284696e+00	1.255448e+00	1.292982e+00	1.289588e+00	1.298721e+00	1.247418e+00	1.323576e+00	1.321151e+00	1.313376e+00	1.307013e+00	1.304585e+00	1.299206e+00	1.311072e+00	1.246183e+00	1.178038e+00	1.222830e+00	1.326701e+00	1.325020e+00	1.337180e+00	1.339600e+00	1.153537e+00	1.180985e+00	1.137484e+00	1.312795e+00	1.307985e+00	1.299502e+00	1.312315e+00	1.311613e+00	1.317042e+00	1.292891e+00	1.300084e+00	1.297105e+00	1.343903e+00	1.307845e+00	1.316712e+00	1.166151e+00	1.183498e+00	1.178459e+00	1.358219e+00	1.190923e+00	1.242247e+00	1.223651e+00	1.145695e+00	1.628615e+00	1.647801e+00	1.620340e+00	1.339378e+00	1.283591e+00	1.296476e+00	1.314899e+00	1.317918e+00	1.289414e+00	1.300921e+00	1.362061e+00	1.343872e+00	1.348485e+00	1.344953e+00	1.337084e+00	1.339163e+00	1.230916e+00	1.302606e+00	1.285634e+00	1.274084e+00	1.303345e+00	1.295095e+00	1.295027e+00	1.295726e+00	1.314986e+00	1.300934e+00	1.324301e+00	1.167075e+00	1.176373e+00	1.049901e+00	1.147597e+00	1.101494e+00	1.196248e+00	1.189502e+00	1.297805e+00	1.288728e+00	1.197431e+00	1.201242e+00	1.191404e+00	1.361984e+00	1.363759e+00	1.019566e+00	1.219963e+00	1.272974e+00	1.302208e+00	1.293889e+00	1.378031e+00	1.232514e+00	1.226243e+00	1.283116e+00	1.223151e+00	1.246788e+00	1.143331e+00	1.043529e+00	1.320099e+00	1.294399e+00	1.308177e+00	8.727141e-01	9.332557e-01	9.462598e-01	1.134294e+00	1.135387e+00	1.141891e+00	1.323152e+00	1.351821e+00	1.347574e+00	1.320604e+00	1.221743e+00	1.339833e+00	1.292813e+00	1.282223e+00	1.392177e+00	1.400411e+00	1.614167e+00	1.307561e+00	1.298584e+00	1.205907e+00	1.387880e+00	1.416461e+00	1.394739e+00	1.326508e+00	1.305889e+00	1.327923e+00	1.343036e+00	1.235588e+00	1.259268e+00	1.206743e+00	1.232240e+00	9.272156e-01	1.170239e+00	1.255490e+00	1.273259e+00	1.147765e+00	1.152933e+00	1.228935e+00	1.226404e+00	1.356817e+00	1.069668e+00	1.323905e+00	1.331385e+00	8.571093e-01	1.285732e+00	1.323331e+00	1.426779e+00	1.353508e+00	1.157630e+00	1.174602e+00	1.174705e+00	1.167626e+00	1.359136e+00	1.374725e+00	1.399711e+00	1.381247e+00	1.272144e+00	1.310713e+00	8.385615e-01	8.369584e-01	1.370943e+00	9.693602e-01	1.432882e+00	1.426487e+00	1.364508e+00	1.264142e+00	1.190453e+00	1.376941e+00	1.337678e+00	1.328362e+00	1.332398e+00	1.307614e+00	1.306812e+00	1.281104e+00	1.347094e+00	1.295348e+00	1.318924e+00	1.258897e+00	8.466523e-01	8.902747e-01	1.366193e+00	1.358916e+00	1.424927e+00	1.255293e+00	1.278120e+00	1.258082e+00	1.263905e+00	1.263791e+00	1.194178e+00	1.179910e+00	1.366417e+00	1.383817e+00	1.206627e+00	1.210373e+00	1.201559e+00	1.240308e+00	1.271760e+00	1.332446e+00	1.292622e+00	1.345496e+00	1.307208e+00	1.298259e+00	1.313281e+00	9.494502e-01	9.334592e-01	8.519922e-01	7.345397e-01	7.648632e-01	1.114859e+00	1.119335e+00	1.364798e+00	1.446083e+00	1.421218e+00	1.440548e+00	1.123394e+00	1.214846e+00	1.216988e+00	1.367203e+00	1.334803e+00	1.161672e+00	7.694243e-01	6.982196e-01	1.264839e+00	1.289335e+00	1.327859e+00	1.338336e+00	1.389586e+00	1.359447e+00	1.306927e+00	1.229754e+00	1.083397e+00	1.084250e+00	9.483977e-01	1.271838e+00	1.353995e+00	1.396359e+00	1.390144e+00	1.397140e+00	8.512917e-01	8.873326e-01	8.318333e-01	9.054127e-01	8.225677e-01	1.444905e+00	1.416791e+00	1.237074e+00	1.250777e+00	1.198505e+00	1.219153e+00	1.203127e+00	1.185869e+00	1.119953e+00	1.143088e+00	1.133344e+00	1.389842e+00	1.323618e+00	1.146503e+00	1.213898e+00	1.192897e+00	1.163593e+00	1.152262e+00	1.160882e+00	1.307608e+00	1.310170e+00	7.824887e-01	1.167690e+00	1.163156e+00	1.188557e+00	1.135818e+00	7.697443e-01	7.974898e-01	1.196801e+00	1.363582e+00	1.350943e+00	1.277968e+00	1.305711e+00	8.153888e-01	1.488117e+00	1.461066e+00	1.469293e+00	1.426373e+00	1.409861e+00	1.395150e+00	1.165312e+00	1.153300e+00	1.340732e+00	1.152437e+00	1.180449e+00	1.394068e+00	1.385323e+00	1.319537e+00	1.311504e+00	1.311660e+00	7.166586e-01	1.265772e+00	1.316867e+00	1.371855e+00	1.344948e+00	1.062966e+00	1.114099e+00	1.511918e+00	1.495583e+00	1.518791e+00	1.524811e+00	1.396151e+00	1.401648e+00	1.406166e+00	1.250916e+00	1.246410e+00	1.246570e+00	1.254926e+00	1.259109e+00	1.313567e+00	1.382226e+00	1.368315e+00	1.380355e+00	1.350555e+00	1.191083e+00	1.175118e+00	1.180811e+00	1.166765e+00	1.177810e+00	1.175399e+00	1.444008e+00	1.470826e+00	1.389736e+00	1.311289e+00	1.327554e+00	1.164045e+00	1.117737e+00	1.105475e+00	1.156745e+00	1.155291e+00	1.152529e+00	1.397512e+00	1.404460e+00	1.407157e+00	1.428610e+00	1.363644e+00	1.196966e+00	1.282318e+00	1.377135e+00	1.374465e+00	1.211011e+00	1.190695e+00	1.147566e+00	1.178599e+00	1.173576e+00	1.167218e+00	1.145550e+00	1.142828e+00	8.077234e-01	1.357450e+00	1.332431e+00	1.341182e+00	1.229677e+00	1.323452e+00	1.302410e+00	1.339173e+00	7.786909e-01	7.745050e-01	7.697594e-01	6.567389e-01	6.559882e-01	1.319390e+00	1.196919e+00	1.377807e+00	1.376855e+00	1.389390e+00	1.375563e+00	1.219904e+00	1.360426e+00	1.370243e+00	1.372341e+00	1.359284e+00	1.363106e+00	1.360406e+00	1.136455e+00	1.148041e+00	1.327081e+00	7.091323e-01	1.163347e+00	1.168166e+00	1.402134e+00	1.415454e+00	1.451209e+00	1.365305e+00	1.134202e+00	1.128270e+00	1.389090e+00	1.376830e+00	1.323018e+00	1.314084e+00	1.319219e+00	1.327098e+00	1.252098e+00	1.254329e+00	1.272342e+00	1.276846e+00	1.280159e+00	1.163128e+00	1.402171e+00	1.393237e+00	1.410303e+00	1.415012e+00	1.173346e+00	1.169577e+00	1.245004e+00	1.245299e+00	1.142586e+00	1.303530e+00	1.168267e+00	8.254221e-01	8.216813e-01	7.889780e-01	1.149654e+00	1.200187e+00	1.399575e+00	6.801062e-01	1.430548e+00	1.414766e+00	1.420419e+00	1.407723e+00	1.384327e+00	1.360949e+00	1.204187e+00	8.065437e-01	1.186156e+00	6.438218e-01	6.388969e-01	6.914812e-01	1.249396e+00	1.104754e+00	1.300148e+00	1.304133e+00	1.300816e+00	1.344349e+00	1.350343e+00	1.161634e+00	1.173178e+00	1.387379e+00	1.355610e+00	1.307153e+00	1.344099e+00	6.649555e-01	6.482121e-01	1.339485e+00	1.415202e+00	1.437454e+00	1.496449e+00	1.474144e+00	1.475528e+00	1.309297e+00	1.403479e+00	1.414437e+00	1.379816e+00	1.167845e+00	1.156602