# vtk DataFile Version 3.0
vtk output
ASCII
DATASET UNSTRUCTURED_GRID
POINTS 198 double
0.000000e+00	0.000000e+00	0.0	3.388620e-03	3.676582e-03	0.0	7.022988e-03	7.355535e-03	0.0	1.137852e-02	1.050911e-02	0.0	1.595945e-02	1.367194e-02	0.0	2.103051e-02	1.643323e-02	0.0	2.631371e-02	1.922749e-02	0.0	3.200537e-02	2.166024e-02	0.0	3.791671e-02	2.412019e-02	0.0	4.416075e-02	2.632958e-02	0.0	5.062969e-02	2.857090e-02	0.0	5.735352e-02	3.076838e-02	0.0	6.428174e-02	3.308298e-02	0.0	7.141483e-02	3.552436e-02	0.0	7.872864e-02	3.816735e-02	0.0	8.625514e-02	4.093077e-02	0.0	9.408781e-02	4.355714e-02	0.0	1.021979e-01	4.611145e-02	0.0	1.106764e-01	4.829241e-02	0.0	1.194453e-01	5.030402e-02	0.0	1.285702e-01	5.184237e-02	0.0	1.379506e-01	5.336249e-02	0.0	1.476445e-01	5.445227e-02	0.0	1.575871e-01	5.556999e-02	0.0	1.677952e-01	5.653607e-02	0.0	1.782570e-01	5.745359e-02	0.0	1.889639e-01	5.838295e-02	0.0	1.999157e-01	5.929544e-02	0.0	2.111056e-01	6.022777e-02	0.0	2.225320e-01	6.114865e-02	0.0	2.341890e-01	6.207122e-02	0.0	2.460718e-01	6.298016e-02	0.0	2.581912e-01	6.361720e-02	0.0	2.705218e-01	6.426533e-02	0.0	2.830654e-01	6.458338e-02	0.0	2.958122e-01	6.463613e-02	0.0	3.087448e-01	6.466296e-02	0.0	3.218344e-01	6.392416e-02	0.0	3.350905e-01	6.317595e-02	0.0	3.484854e-01	6.218817e-02	0.0	3.620084e-01	6.097084e-02	0.0	3.756633e-01	5.974162e-02	0.0	3.894412e-01	5.853933e-02	0.0	4.033257e-01	5.732778e-02	0.0	4.173206e-01	5.635358e-02	0.0	4.314129e-01	5.562832e-02	0.0	4.455709e-01	5.489967e-02	0.0	4.597981e-01	5.472431e-02	0.0	4.740623e-01	5.455052e-02	0.0	4.883492e-01	5.449116e-02	0.0	5.026440e-01	5.454340e-02	0.0	5.169314e-01	5.459360e-02	0.0	5.311965e-01	5.452788e-02	0.0	5.454246e-01	5.446234e-02	0.0	5.595979e-01	5.420508e-02	0.0	5.737023e-01	5.377500e-02	0.0	5.877264e-01	5.333965e-02	0.0	6.016430e-01	5.257970e-02	0.0	6.154526e-01	5.182559e-02	0.0	6.291340e-01	5.094710e-02	0.0	6.426751e-01	4.995183e-02	0.0	6.560721e-01	4.896716e-02	0.0	6.692992e-01	4.781486e-02	0.0	6.823599e-01	4.667362e-02	0.0	6.952385e-01	4.548629e-02	0.0	7.079240e-01	4.423753e-02	0.0	7.204150e-01	4.300793e-02	0.0	7.326920e-01	4.169009e-02	0.0	7.447575e-01	4.038273e-02	0.0	7.566012e-01	3.905561e-02	0.0	7.682147e-01	3.769041e-02	0.0	7.795997e-01	3.635170e-02	0.0	7.907390e-01	3.493755e-02	0.0	8.016412e-01	3.355350e-02	0.0	8.122926e-01	3.212291e-02	0.0	8.226969e-01	3.069435e-02	0.0	8.328489e-01	2.925010e-02	0.0	8.427466e-01	2.778695e-02	0.0	8.523939e-01	2.634206e-02	0.0	8.617827e-01	2.486483e-02	0.0	8.709239e-01	2.342656e-02	0.0	8.798090e-01	2.197126e-02	0.0	8.884466e-01	2.054478e-02	0.0	8.968367e-01	1.914033e-02	0.0	9.049790e-01	1.774294e-02	0.0	9.128813e-01	1.638672e-02	0.0	9.205404e-01	1.503690e-02	0.0	9.279641e-01	1.372163e-02	0.0	9.351546e-01	1.243460e-02	0.0	9.421138e-01	1.116657e-02	0.0	9.488494e-01	9.938696e-03	0.0	9.553601e-01	8.721729e-03	0.0	9.616554e-01	7.545002e-03	0.0	9.677358e-01	6.386356e-03	0.0	9.736090e-01	5.263348e-03	0.0	9.792767e-01	4.159588e-03	0.0	9.847457e-01	3.086660e-03	0.0	9.900197e-01	2.037678e-03	0.0	9.951028e-01	1.008476e-03	0.0	1.000000e+00	0.000000e+00	0.0	9.950045e-01	2.092591e-04	0.0	9.898217e-01	4.163528e-04	0.0	9.844453e-01	5.723452e-04	0.0	9.788709e-01	6.817156e-04	0.0	9.730944e-01	7.656143e-04	0.0	9.671109e-01	7.885548e-04	0.0	9.609164e-01	7.883967e-04	0.0	9.545064e-01	7.208584e-04	0.0	9.478767e-01	6.375810e-04	0.0	9.410244e-01	4.571235e-04	0.0	9.339438e-01	2.706538e-04	0.0	9.266347e-01	-2.269843e-05	0.0	9.190907e-01	-3.498133e-04	0.0	9.113110e-01	-7.463855e-04	0.0	9.032951e-01	-1.260185e-03	0.0	8.950349e-01	-1.789647e-03	0.0	8.865434e-01	-2.533981e-03	0.0	8.778062e-01	-3.330672e-03	0.0	8.688329e-01	-4.275348e-03	0.0	8.596298e-01	-5.434512e-03	0.0	8.501776e-01	-6.634008e-03	0.0	8.405233e-01	-8.201046e-03	0.0	8.306204e-01	-9.808454e-03	0.0	8.204903e-01	-1.157671e-02	0.0	8.101217e-01	-1.342937e-02	0.0	7.995045e-01	-1.529549e-02	0.0	7.886411e-01	-1.717214e-02	0.0	7.775339e-01	-1.904952e-02	0.0	7.661634e-01	-2.078178e-02	0.0	7.545637e-01	-2.254894e-02	0.0	7.427334e-01	-2.430412e-02	0.0	7.306834e-01	-2.607755e-02	0.0	7.184323e-01	-2.794478e-02	0.0	7.060060e-01	-3.002027e-02	0.0	6.933852e-01	-3.212825e-02	0.0	6.806468e-01	-3.462916e-02	0.0	6.677617e-01	-3.731654e-02	0.0	6.547258e-01	-4.009897e-02	0.0	6.416357e-01	-4.335052e-02	0.0	6.284042e-01	-4.663722e-02	0.0	6.150467e-01	-4.997135e-02	0.0	6.015749e-01	-5.334818e-02	0.0	5.879984e-01	-5.675128e-02	0.0	5.742241e-01	-5.972063e-02	0.0	5.603661e-01	-6.268617e-02	0.0	5.463750e-01	-6.528763e-02	0.0	5.322355e-01	-6.735754e-02	0.0	5.180591e-01	-6.943285e-02	0.0	5.037716e-01	-7.074516e-02	0.0	4.894670e-01	-7.197615e-02	0.0	4.751540e-01	-7.296428e-02	0.0	4.608411e-01	-7.361024e-02	0.0	4.465654e-01	-7.425451e-02	0.0	4.323316e-01	-7.459935e-02	0.0	4.181635e-01	-7.492158e-02	0.0	4.040747e-01	-7.515355e-02	0.0	3.900787e-01	-7.527676e-02	0.0	3.761907e-01	-7.539902e-02	0.0	3.624237e-01	-7.530512e-02	0.0	3.487905e-01	-7.520396e-02	0.0	3.353051e-01	-7.498194e-02	0.0	3.219793e-01	-7.462423e-02	0.0	3.088217e-01	-7.427103e-02	0.0	2.958540e-01	-7.362657e-02	0.0	2.830748e-01	-7.297933e-02	0.0	2.705038e-01	-7.217125e-02	0.0	2.581520e-01	-7.116176e-02	0.0	2.460126e-01	-7.016962e-02	0.0	2.341361e-01	-6.876733e-02	0.0	2.224888e-01	-6.734777e-02	0.0	2.111001e-01	-6.576165e-02	0.0	1.999976e-01	-6.385484e-02	0.0	1.891324e-01	-6.198878e-02	0.0	1.785776e-01	-5.980592e-02	0.0	1.682846e-01	-5.757100e-02	0.0	1.582465e-01	-5.534039e-02	0.0	1.485045e-01	-5.294349e-02	0.0	1.390071e-01	-5.060680e-02	0.0	1.297661e-01	-4.828553e-02	0.0	1.207780e-01	-4.599302e-02	0.0	1.120338e-01	-4.376272e-02	0.0	1.035227e-01	-4.163299e-02	0.0	9.525326e-02	-3.956404e-02	0.0	8.722482e-02	-3.755013e-02	0.0	7.943527e-02	-3.559021e-02	0.0	7.188157e-02	-3.368545e-02	0.0	6.458323e-02	-3.174828e-02	0.0	5.751281e-02	-2.987160e-02	0.0	5.071214e-02	-2.789377e-02	0.0	4.414374e-02	-2.593351e-02	0.0	3.786854e-02	-2.379832e-02	0.0	3.183068e-02	-2.164517e-02	0.0	2.615345e-02	-1.917142e-02	0.0	2.074204e-02	-1.662893e-02	0.0	1.572466e-02	-1.376511e-02	0.0	1.106376e-02	-1.071883e-02	0.0	6.715491e-03	-7.555964e-03	0.0	2.908562e-03	-4.033011e-03	0.0	
CELLS 198	594
2	68	69	2	69	70	2	70	71	2	71	72	2	72	73	2	73	74	2	74	75	2	75	76	2	76	77	2	77	78	2	78	79	2	79	80	2	80	81	2	81	82	2	82	83	2	83	84	2	84	85	2	85	86	2	86	87	2	87	88	2	88	89	2	89	90	2	90	91	2	91	92	2	92	93	2	93	94	2	94	95	2	95	96	2	96	97	2	97	98	2	98	99	2	99	100	2	100	101	2	101	102	2	102	103	2	103	104	2	104	105	2	105	106	2	106	107	2	107	108	2	108	109	2	109	110	2	110	111	2	111	112	2	112	113	2	113	114	2	114	115	2	115	116	2	116	117	2	117	118	2	118	119	2	119	120	2	120	121	2	121	122	2	122	123	2	123	124	2	124	125	2	0	1	2	1	2	2	2	3	2	3	4	2	4	5	2	5	6	2	6	7	2	7	8	2	8	9	2	9	10	2	10	11	2	11	12	2	12	13	2	13	14	2	14	15	2	15	16	2	16	17	2	17	18	2	18	19	2	19	20	2	20	21	2	21	22	2	22	23	2	23	24	2	24	25	2	25	26	2	26	27	2	27	28	2	28	29	2	29	30	2	30	31	2	31	32	2	32	33	2	33	34	2	34	35	2	35	36	2	36	37	2	37	38	2	38	39	2	39	40	2	40	41	2	41	42	2	42	43	2	43	44	2	44	45	2	45	46	2	46	47	2	47	48	2	48	49	2	49	50	2	50	51	2	51	52	2	52	53	2	53	54	2	54	55	2	55	56	2	56	57	2	57	58	2	58	59	2	59	60	2	60	61	2	61	62	2	62	63	2	63	64	2	64	65	2	65	66	2	66	67	2	67	68	2	125	126	2	126	127	2	127	128	2	128	129	2	129	130	2	130	131	2	131	132	2	132	133	2	133	134	2	134	135	2	135	136	2	136	137	2	137	138	2	138	139	2	139	140	2	140	141	2	141	142	2	142	143	2	143	144	2	144	145	2	145	146	2	146	147	2	147	148	2	148	149	2	149	150	2	150	151	2	151	152	2	152	153	2	153	154	2	154	155	2	155	156	2	156	157	2	157	158	2	158	159	2	159	160	2	160	161	2	161	162	2	162	163	2	163	164	2	164	165	2	165	166	2	166	167	2	167	168	2	168	169	2	169	170	2	170	171	2	171	172	2	172	173	2	173	174	2	174	175	2	175	176	2	176	177	2	177	178	2	178	179	2	179	180	2	180	181	2	181	182	2	182	183	2	183	184	2	184	185	2	185	186	2	186	187	2	187	188	2	188	189	2	189	190	2	190	191	2	191	192	2	192	193	2	193	194	2	194	195	2	195	196	2	196	197	2	197	0	
CELL_TYPES 198
3	3	3	3	3	3	3	3	3	3	3	3	3	3	3	3	3	3	3	3	3	3	3	3	3	3	3	3	3	3	3	3	3	3	3	3	3	3	3	3	3	3	3	3	3	3	3	3	3	3	3	3	3	3	3	3	3	3	3	3	3	3	3	3	3	3	3	3	3	3	3	3	3	3	3	3	3	3	3	3	3	3	3	3	3	3	3	3	3	3	3	3	3	3	3	3	3	3	3	3	3	3	3	3	3	3	3	3	3	3	3	3	3	3	3	3	3	3	3	3	3	3	3	3	3	3	3	3	3	3	3	3	3	3	3	3	3	3	3	3	3	3	3	3	3	3	3	3	3	3	3	3	3	3	3	3	3	3	3	3	3	3	3	3	3	3	3	3	3	3	3	3	3	3	3	3	3	3	3	3	3	3	3	3	3	3	3	3	3	3	3	3	3	3	3	3	3	3	
POINT_DATA 198

SCALARS Density double 1
LOOKUP_TABLE default
1.557408e+00	1.208209e+00	1.228289e+00	1.180654e+00	1.148564e+00	1.122485e+00	1.102710e+00	1.091094e+00	1.098070e+00	1.110732e+00	1.139764e+00	1.159230e+00	1.168864e+00	1.166437e+00	1.143229e+00	1.087879e+00	1.025809e+00	9.603194e-01	8.970304e-01	8.389650e-01	7.995927e-01	7.700113e-01	7.490244e-01	7.463248e-01	7.407206e-01	7.445817e-01	7.529782e-01	7.615246e-01	7.696886e-01	7.789710e-01	7.884274e-01	7.815919e-01	7.731216e-01	7.614028e-01	7.379022e-01	7.293664e-01	6.972795e-01	6.626097e-01	6.552669e-01	6.405557e-01	6.344050e-01	6.412230e-01	6.486914e-01	6.604719e-01	6.848119e-01	7.428669e-01	9.764618e-01	1.202611e+00	1.200770e+00	1.189063e+00	1.174029e+00	1.156335e+00	1.141987e+00	1.128977e+00	1.115254e+00	1.112800e+00	1.106886e+00	1.106451e+00	1.113995e+00	1.115321e+00	1.121576e+00	1.124813e+00	1.129886e+00	1.138755e+00	1.142226e+00	1.148261e+00	1.153084e+00	1.157908e+00	1.164853e+00	1.168528e+00	1.174171e+00	1.177888e+00	1.182731e+00	1.188693e+00	1.192982e+00	1.199262e+00	1.204448e+00	1.211300e+00	1.217232e+00	1.223951e+00	1.230910e+00	1.236722e+00	1.244117e+00	1.249603e+00	1.256077e+00	1.262047e+00	1.267715e+00	1.274433e+00	1.279798e+00	1.286134e+00	1.292038e+00	1.298431e+00	1.305420e+00	1.312212e+00	1.320343e+00	1.328516e+00	1.340473e+00	1.352076e+00	1.377029e+00	1.362404e+00	1.435112e+00	1.422723e+00	1.420333e+00	1.422282e+00	1.422941e+00	1.423788e+00	1.424312e+00	1.425849e+00	1.425959e+00	1.426859e+00	1.428030e+00	1.427295e+00	1.429844e+00	1.428376e+00	1.431660e+00	1.432296e+00	1.430102e+00	1.432854e+00	1.427614e+00	1.429259e+00	1.424499e+00	1.414267e+00	1.407623e+00	1.395448e+00	1.384999e+00	1.375880e+00	1.364522e+00	1.360148e+00	1.359859e+00	1.358240e+00	1.361498e+00	1.366342e+00	1.365714e+00	1.370227e+00	1.370728e+00	1.360283e+00	1.358935e+00	1.347278e+00	1.323060e+00	1.304149e+00	1.280483e+00	1.242216e+00	1.212215e+00	1.178334e+00	1.132938e+00	1.106579e+00	1.069772e+00	1.058992e+00	1.072012e+00	1.071907e+00	1.089440e+00	1.100956e+00	1.113028e+00	1.128617e+00	1.135139e+00	1.141505e+00	1.139966e+00	1.141773e+00	1.144623e+00	1.143196e+00	1.146445e+00	1.140820e+00	1.141655e+00	1.145180e+00	1.142489e+00	1.148938e+00	1.144117e+00	1.150082e+00	1.164431e+00	1.166039e+00	1.185739e+00	1.199678e+00	1.216014e+00	1.246253e+00	1.261990e+00	1.283216e+00	1.307005e+00	1.323149e+00	1.340377e+00	1.356409e+00	1.368888e+00	1.377906e+00	1.386749e+00	1.395256e+00	1.400269e+00	1.407817e+00	1.413741e+00	1.420961e+00	1.428844e+00	1.439641e+00	1.450466e+00	1.468724e+00	1.493133e+00	1.518130e+00	1.555491e+00	1.597637e+00	1.606023e+00	1.699833e+00	
VECTORS Momentum double
1.486867e+01	2.091578e+02	0.0	1.722255e+02	1.786295e+02	0.0	1.982464e+02	1.698161e+02	0.0	2.255224e+02	1.588102e+02	0.0	2.465243e+02	1.509591e+02	0.0	2.643737e+02	1.414719e+02	0.0	2.769059e+02	1.316461e+02	0.0	2.845438e+02	1.198356e+02	0.0	2.896368e+02	1.110361e+02	0.0	2.909771e+02	1.017257e+02	0.0	2.907727e+02	9.775765e+01	0.0	2.902782e+02	9.607007e+01	0.0	2.883917e+02	9.769546e+01	0.0	2.899822e+02	1.018166e+02	0.0	2.943413e+02	1.076434e+02	0.0	2.995361e+02	1.054030e+02	0.0	3.049184e+02	9.919570e+01	0.0	3.078937e+02	8.829803e+01	0.0	3.080341e+02	7.527180e+01	0.0	3.048192e+02	6.082707e+01	0.0	3.019636e+02	4.967543e+01	0.0	2.995011e+02	4.075891e+01	0.0	2.967491e+02	3.303178e+01	0.0	2.975488e+02	3.055204e+01	0.0	2.967909e+02	2.690431e+01	0.0	2.978054e+02	2.568019e+01	0.0	2.995863e+02	2.540724e+01	0.0	3.011577e+02	2.512613e+01	0.0	3.024989e+02	2.480179e+01	0.0	3.036576e+02	2.433136e+01	0.0	3.056577e+02	2.413888e+01	0.0	3.044254e+02	2.003183e+01	0.0	3.031394e+02	1.593419e+01	0.0	3.018437e+02	1.179385e+01	0.0	2.970005e+02	4.438652e+00	0.0	2.969507e+02	1.654171e+00	0.0	2.903074e+02	-6.964576e+00	0.0	2.811966e+02	-1.604215e+01	0.0	2.806071e+02	-1.873706e+01	0.0	2.766402e+02	-2.270762e+01	0.0	2.749077e+02	-2.503532e+01	0.0	2.767482e+02	-2.473709e+01	0.0	2.785380e+02	-2.439790e+01	0.0	2.820420e+02	-2.241103e+01	0.0	2.864519e+02	-1.735388e+01	0.0	2.959610e+02	-1.627230e+01	0.0	2.986519e+02	-8.262307e+00	0.0	2.988704e+02	-2.262788e+00	0.0	2.995850e+02	-2.391297e+00	0.0	3.012905e+02	-1.515715e-02	0.0	3.036011e+02	1.196648e+00	0.0	3.056456e+02	-7.052043e-02	0.0	3.070575e+02	-1.467762e+00	0.0	3.094515e+02	-3.538122e+00	0.0	3.097204e+02	-7.659361e+00	0.0	3.109715e+02	-9.603133e+00	0.0	3.112861e+02	-1.328028e+01	0.0	3.105763e+02	-1.710280e+01	0.0	3.107792e+02	-1.849699e+01	0.0	3.099777e+02	-2.127713e+01	0.0	3.098315e+02	-2.273158e+01	0.0	3.091587e+02	-2.478737e+01	0.0	3.080382e+02	-2.690936e+01	0.0	3.076631e+02	-2.759425e+01	0.0	3.067394e+02	-2.926812e+01	0.0	3.061916e+02	-3.019388e+01	0.0	3.055645e+02	-3.142620e+01	0.0	3.044494e+02	-3.286500e+01	0.0	3.038503e+02	-3.347227e+01	0.0	3.028832e+02	-3.476326e+01	0.0	3.022797e+02	-3.552573e+01	0.0	3.013680e+02	-3.682170e+01	0.0	3.002797e+02	-3.813095e+01	0.0	2.994710e+02	-3.911331e+01	0.0	2.982674e+02	-4.052998e+01	0.0	2.972777e+02	-4.154988e+01	0.0	2.958909e+02	-4.293146e+01	0.0	2.946769e+02	-4.384810e+01	0.0	2.932048e+02	-4.500910e+01	0.0	2.916434e+02	-4.590211e+01	0.0	2.902111e+02	-4.657639e+01	0.0	2.884007e+02	-4.746739e+01	0.0	2.869417e+02	-4.770736e+01	0.0	2.853088e+02	-4.834810e+01	0.0	2.836809e+02	-4.868136e+01	0.0	2.821107e+02	-4.904913e+01	0.0	2.802976e+02	-4.953447e+01	0.0	2.787211e+02	-4.961132e+01	0.0	2.768693e+02	-4.998486e+01	0.0	2.750827e+02	-5.012875e+01	0.0	2.731722e+02	-5.041491e+01	0.0	2.710846e+02	-5.067939e+01	0.0	2.688891e+02	-5.073776e+01	0.0	2.664626e+02	-5.089784e+01	0.0	2.639451e+02	-5.091793e+01	0.0	2.604434e+02	-5.090858e+01	0.0	2.569747e+02	-5.055473e+01	0.0	2.501505e+02	-5.030401e+01	0.0	2.434349e+02	-4.926098e+01	0.0	2.209504e+02	-1.630762e+01	0.0	2.738421e+02	-1.207075e+01	0.0	2.718718e+02	-9.513386e+00	0.0	2.705272e+02	-6.493802e+00	0.0	2.704414e+02	-4.605877e+00	0.0	2.700667e+02	-2.451837e+00	0.0	2.697054e+02	-5.085764e-01	0.0	2.694572e+02	1.426840e+00	0.0	2.690663e+02	3.078309e+00	0.0	2.686459e+02	5.259694e+00	0.0	2.684504e+02	7.061748e+00	0.0	2.679858e+02	8.925336e+00	0.0	2.675685e+02	1.116818e+01	0.0	2.672109e+02	1.262199e+01	0.0	2.665696e+02	1.543463e+01	0.0	2.663744e+02	1.701985e+01	0.0	2.653495e+02	2.016808e+01	0.0	2.653133e+02	2.375035e+01	0.0	2.654272e+02	2.603755e+01	0.0	2.651539e+02	3.078284e+01	0.0	2.661174e+02	3.358048e+01	0.0	2.662448e+02	3.847118e+01	0.0	2.688587e+02	4.359383e+01	0.0	2.726285e+02	4.585347e+01	0.0	2.756972e+02	4.866839e+01	0.0	2.798275e+02	4.957301e+01	0.0	2.831883e+02	4.937310e+01	0.0	2.859776e+02	4.893169e+01	0.0	2.888250e+02	4.631741e+01	0.0	2.895318e+02	4.409369e+01	0.0	2.891530e+02	4.354213e+01	0.0	2.890993e+02	4.267237e+01	0.0	2.878878e+02	4.308659e+01	0.0	2.866226e+02	4.578719e+01	0.0	2.864824e+02	4.766683e+01	0.0	2.856125e+02	5.187032e+01	0.0	2.860767e+02	5.797815e+01	0.0	2.884109e+02	6.072194e+01	0.0	2.887703e+02	6.663833e+01	0.0	2.925838e+02	7.266167e+01	0.0	2.986670e+02	7.427014e+01	0.0	3.034317e+02	7.581728e+01	0.0	3.084660e+02	7.735309e+01	0.0	3.161079e+02	7.346618e+01	0.0	3.206102e+02	6.895804e+01	0.0	3.240892e+02	6.469651e+01	0.0	3.300194e+02	5.471915e+01	0.0	3.294153e+02	4.845368e+01	0.0	3.323796e+02	3.942143e+01	0.0	3.345621e+02	2.971814e+01	0.0	3.321881e+02	2.601244e+01	0.0	3.343454e+02	1.906947e+01	0.0	3.333382e+02	1.505460e+01	0.0	3.329546e+02	1.145196e+01	0.0	3.329067e+02	7.717227e+00	0.0	3.316665e+02	6.457840e+00	0.0	3.318763e+02	4.031535e+00	0.0	3.312166e+02	2.890026e+00	0.0	3.316549e+02	3.127973e-01	0.0	3.314699e+02	-2.323248e+00	0.0	3.310087e+02	-3.903868e+00	0.0	3.315342e+02	-7.155142e+00	0.0	3.309384e+02	-8.786939e+00	0.0	3.313467e+02	-1.272804e+01	0.0	3.309929e+02	-1.654587e+01	0.0	3.297757e+02	-1.879027e+01	0.0	3.301948e+02	-2.412269e+01	0.0	3.289764e+02	-2.678407e+01	0.0	3.291267e+02	-3.307182e+01	0.0	3.280826e+02	-3.952881e+01	0.0	3.256105e+02	-4.234017e+01	0.0	3.247004e+02	-5.052361e+01	0.0	3.208245e+02	-5.502546e+01	0.0	3.178740e+02	-5.991042e+01	0.0	3.138321e+02	-6.650019e+01	0.0	3.083062e+02	-6.762591e+01	0.0	3.041221e+02	-7.116351e+01	0.0	2.986133e+02	-7.350316e+01	0.0	2.930998e+02	-7.280977e+01	0.0	2.887387e+02	-7.309153e+01	0.0	2.839705e+02	-7.249770e+01	0.0	2.800211e+02	-7.077765e+01	0.0	2.768323e+02	-6.926062e+01	0.0	2.738915e+02	-6.863305e+01	0.0	2.709392e+02	-6.809211e+01	0.0	2.681743e+02	-6.752812e+01	0.0	2.650550e+02	-6.857299e+01	0.0	2.616157e+02	-6.942121e+01	0.0	2.576546e+02	-7.161590e+01	0.0	2.529223e+02	-7.449403e+01	0.0	2.462812e+02	-7.853192e+01	0.0	2.379398e+02	-8.278150e+01	0.0	2.251860e+02	-8.905586e+01	0.0	2.070930e+02	-9.383285e+01	0.0	1.849141e+02	-9.550518e+01	0.0	1.532312e+02	-9.319816e+01	0.0	1.112796e+02	-7.703105e+01	0.0	6.606325e+01	-5.101881e+01	0.0	-1.881802e+01	1.603555e+01	0.0	
SCALARS Energy double 1
LOOKUP_TABLE default
3.417734e+05	2.692929e+05	2.742926e+05	2.652430e+05	2.594717e+05	2.548651e+05	2.513132e+05	2.490963e+05	2.506459e+05	2.530946e+05	2.589651e+05	2.629126e+05	2.648120e+05	2.645225e+05	2.601952e+05	2.491590e+05	2.367759e+05	2.235175e+05	2.105438e+05	1.983898e+05	1.901318e+05	1.839352e+05	1.794372e+05	1.789740e+05	1.777610e+05	1.786128e+05	1.804418e+05	1.822771e+05	1.840131e+05	1.859469e+05	1.880126e+05	1.865087e+05	1.846866e+05	1.822387e+05	1.771030e+05	1.754427e+05	1.684892e+05	1.607970e+05	1.593446e+05	1.560940e+05	1.547366e+05	1.562556e+05	1.578924e+05	1.605448e+05	1.656888e+05	1.779940e+05	2.248151e+05	2.714102e+05	2.710783e+05	2.687670e+05	2.658166e+05	2.623047e+05	2.594467e+05	2.569494e+05	2.541498e+05	2.537487e+05	2.525688e+05	2.524372e+05	2.540112e+05	2.542344e+05	2.555186e+05	2.561448e+05	2.571165e+05	2.589213e+05	2.595785e+05	2.607899e+05	2.617486e+05	2.626734e+05	2.640708e+05	2.647708e+05	2.659019e+05	2.666172e+05	2.675544e+05	2.687426e+05	2.695606e+05	2.708056e+05	2.718002e+05	2.731510e+05	2.742969e+05	2.756002e+05	2.769623e+05	2.780643e+05	2.795156e+05	2.805627e+05	2.818157e+05	2.829693e+05	2.840475e+05	2.853584e+05	2.863735e+05	2.875960e+05	2.887240e+05	2.899464e+05	2.912880e+05	2.925788e+05	2.941486e+05	2.956754e+05	2.980058e+05	3.000909e+05	3.050230e+05	3.005987e+05	3.186985e+05	3.159635e+05	3.153794e+05	3.157852e+05	3.159030e+05	3.160620e+05	3.161598e+05	3.164650e+05	3.164674e+05	3.166498e+05	3.168758e+05	3.167023e+05	3.172266e+05	3.168891e+05	3.175798e+05	3.176717e+05	3.172207e+05	3.178213e+05	3.167233e+05	3.171411e+05	3.161750e+05	3.141923e+05	3.130145e+05	3.106415e+05	3.086819e+05	3.069540e+05	3.047239e+05	3.039494e+05	3.039105e+05	3.035419e+05	3.042159e+05	3.051652e+05	3.049821e+05	3.059417e+05	3.060391e+05	3.039396e+05	3.038315e+05	3.014844e+05	2.967328e+05	2.931940e+05	2.885995e+05	2.810183e+05	2.752935e+05	2.685728e+05	2.594617e+05	2.544204e+05	2.467959e+05	2.447664e+05	2.475110e+05	2.472512e+05	2.509628e+05	2.532014e+05	2.556175e+05	2.587882e+05	2.600159e+05	2.613335e+05	2.609626e+05	2.613681e+05	2.619371e+05	2.616079e+05	2.623214e+05	2.611230e+05	2.613385e+05	2.620454e+05	2.614033e+05	2.627882e+05	2.617168e+05	2.629988e+05	2.659165e+05	2.660768e+05	2.701498e+05	2.727801e+05	2.759978e+05	2.820599e+05	2.849536e+05	2.891395e+05	2.937748e+05	2.967864e+05	3.001299e+05	3.031982e+05	3.055637e+05	3.072562e+05	3.089443e+05	3.105670e+05	3.114655e+05	3.129062e+05	3.139877e+05	3.153403e+05	3.168104e+05	3.188321e+05	3.207999e+05	3.242119e+05	3.287473e+05	3.332985e+05	3.402789e+05	3.481023e+05	3.489028e+05	3.686782e+05	
SCALARS Pressure double 1
LOOKUP_TABLE default
1.310631e+05	9.752519e+04	9.862206e+04	9.320927e+04	8.923783e+04	8.592663e+04	8.347502e+04	8.216508e+04	8.273333e+04	8.412915e+04	8.707290e+04	8.903522e+04	9.006082e+04	8.961329e+04	8.689451e+04	8.112629e+04	7.466469e+04	6.804013e+04	6.179893e+04	5.632404e+04	5.262838e+04	4.984397e+04	4.797027e+04	4.761380e+04	4.712539e+04	4.744575e+04	4.816606e+04	4.892545e+04	4.966809e+04	5.055247e+04	5.135774e+04	5.078641e+04	5.003688e+04	4.892690e+04	4.692772e+04	4.599650e+04	4.320826e+04	4.037444e+04	3.959762e+04	3.838179e+04	3.787182e+04	3.842279e+04	3.905345e+04	3.997769e+04	4.222341e+04	4.754393e+04	7.164344e+04	9.370831e+04	9.348142e+04	9.223829e+04	9.062428e+04	8.876406e+04	8.726599e+04	8.581348e+04	8.444675e+04	8.410273e+04	8.348723e+04	8.348650e+04	8.420298e+04	8.438236e+04	8.499731e+04	8.535401e+04	8.592248e+04	8.681022e+04	8.720673e+04	8.782757e+04	8.833338e+04	8.887298e+04	8.958415e+04	8.999998e+04	9.058197e+04	9.099539e+04	9.152850e+04	9.215030e+04	9.263439e+04	9.329625e+04	9.387602e+04	9.460557e+04	9.526058e+04	9.599723e+04	9.674784e+04	9.741047e+04	9.820436e+04	9.882264e+04	9.953524e+04	1.001942e+05	1.008369e+05	1.015657e+05	1.021794e+05	1.028805e+05	1.035450e+05	1.042636e+05	1.050437e+05	1.058149e+05	1.067138e+05	1.076685e+05	1.089684e+05	1.104059e+05	1.130497e+05	1.130338e+05	1.170084e+05	1.159821e+05	1.158405e+05	1.160264e+05	1.161089e+05	1.162068e+05	1.162682e+05	1.164298e+05	1.164607e+05	1.165516e+05	1.166810e+05	1.166315e+05	1.168810e+05	1.167726e+05	1.170791e+05	1.171801e+05	1.169652e+05	1.172002e+05	1.167071e+05	1.167888e+05	1.163098e+05	1.151859e+05	1.143465e+05	1.130233e+05	1.118105e+05	1.107699e+05	1.095516e+05	1.089980e+05	1.089492e+05	1.088262e+05	1.091415e+05	1.096627e+05	1.096551e+05	1.100657e+05	1.101207e+05	1.090488e+05	1.087479e+05	1.075558e+05	1.049545e+05	1.027519e+05	1.001613e+05	9.612435e+04	9.274070e+04	8.917518e+04	8.450393e+04	8.154238e+04	7.799204e+04	7.674866e+04	7.795706e+04	7.818499e+04	7.979650e+04	8.105431e+04	8.230323e+04	8.386529e+04	8.461765e+04	8.523291e+04	8.513662e+04	8.527983e+04	8.557592e+04	8.547201e+04	8.574472e+04	8.523538e+04	8.527343e+04	8.563688e+04	8.546176e+04	8.603497e+04	8.564271e+04	8.617163e+04	8.761053e+04	8.793822e+04	8.984631e+04	9.144795e+04	9.318991e+04	9.630839e+04	9.819273e+04	1.004511e+05	1.030383e+05	1.049279e+05	1.068150e+05	1.086142e+05	1.100373e+05	1.110826e+05	1.120793e+05	1.130397e+05	1.136629e+05	1.145139e+05	1.152308e+05	1.160704e+05	1.169934e+05	1.182497e+05	1.195686e+05	1.216997e+05	1.245749e+05	1.276131e+05	1.319758e+05	1.369479e+05	1.386935e+05	1.473994e+05	
SCALARS Temperature double 1
LOOKUP_TABLE default
2.931624e+02	2.811934e+02	2.797072e+02	2.750216e+02	2.706601e+02	2.666722e+02	2.637092e+02	2.623346e+02	2.624708e+02	2.638563e+02	2.661327e+02	2.675608e+02	2.684122e+02	2.676342e+02	2.647827e+02	2.597834e+02	2.535591e+02	2.468197e+02	2.399961e+02	2.338731e+02	2.292881e+02	2.254997e+02	2.231036e+02	2.222467e+02	2.216312e+02	2.219807e+02	2.228379e+02	2.238109e+02	2.247982e+02	2.260744e+02	2.269209e+02	2.263590e+02	2.254617e+02	2.238533e+02	2.215445e+02	2.196895e+02	2.158690e+02	2.122654e+02	2.105141e+02	2.087366e+02	2.079601e+02	2.087422e+02	2.097257e+02	2.108597e+02	2.147892e+02	2.229536e+02	2.555945e+02	2.714459e+02	2.712037e+02	2.702320e+02	2.689033e+02	2.674139e+02	2.662038e+02	2.647895e+02	2.637785e+02	2.632833e+02	2.627529e+02	2.628540e+02	2.633144e+02	2.635616e+02	2.640018e+02	2.643466e+02	2.649124e+02	2.655650e+02	2.659674e+02	2.664530e+02	2.668665e+02	2.673783e+02	2.679110e+02	2.683080e+02	2.687453e+02	2.691198e+02	2.695880e+02	2.700583e+02	2.705010e+02	2.710069e+02	2.715169e+02	2.720791e+02	2.726278e+02	2.732279e+02	2.738076e+02	2.743872e+02	2.749792e+02	2.754958e+02	2.760521e+02	2.765651e+02	2.770947e+02	2.776262e+02	2.781329e+02	2.786616e+02	2.791798e+02	2.797333e+02	2.803175e+02	2.809140e+02	2.815558e+02	2.823268e+02	2.831865e+02	2.844602e+02	2.859939e+02	2.890233e+02	2.840283e+02	2.839887e+02	2.841192e+02	2.841853e+02	2.842555e+02	2.843261e+02	2.843716e+02	2.844597e+02	2.845133e+02	2.845558e+02	2.846383e+02	2.846638e+02	2.847643e+02	2.847927e+02	2.848852e+02	2.850044e+02	2.849180e+02	2.849420e+02	2.847848e+02	2.846562e+02	2.844359e+02	2.837255e+02	2.829874e+02	2.821529e+02	2.812312e+02	2.804603e+02	2.796845e+02	2.791662e+02	2.791005e+02	2.791176e+02	2.792564e+02	2.795955e+02	2.797046e+02	2.798272e+02	2.798645e+02	2.792686e+02	2.787740e+02	2.781037e+02	2.763453e+02	2.744689e+02	2.724938e+02	2.695670e+02	2.665147e+02	2.636367e+02	2.598370e+02	2.567032e+02	2.539741e+02	2.524693e+02	2.533297e+02	2.540952e+02	2.551589e+02	2.564699e+02	2.575972e+02	2.588607e+02	2.596823e+02	2.601117e+02	2.601685e+02	2.601937e+02	2.604471e+02	2.604554e+02	2.605461e+02	2.602755e+02	2.602012e+02	2.605058e+02	2.605856e+02	2.608607e+02	2.607656e+02	2.610153e+02	2.621035e+02	2.627211e+02	2.639620e+02	2.655459e+02	2.669689e+02	2.692083e+02	2.710527e+02	2.727001e+02	2.746323e+02	2.762567e+02	2.776104e+02	2.789499e+02	2.800286e+02	2.808387e+02	2.815516e+02	2.822326e+02	2.827729e+02	2.833624e+02	2.839417e+02	2.845573e+02	2.852377e+02	2.861386e+02	2.871705e+02	2.886553e+02	2.906449e+02	2.928307e+02	2.955677e+02	2.986123e+02	3.008394e+02	3.020784e+02	
SCALARS Mach double 1
LOOKUP_TABLE default
3.922503e-01	6.109302e-01	6.338652e-01	7.027214e-01	7.631161e-01	8.159819e-01	8.540993e-01	8.714981e-01	8.697813e-01	8.522281e-01	8.229890e-01	8.043682e-01	7.931569e-01	8.034053e-01	8.403918e-01	9.033652e-01	9.792046e-01	1.059031e+00	1.138242e+00	1.208478e+00	1.260796e+00	1.303960e+00	1.331268e+00	1.341038e+00	1.348059e+00	1.344072e+00	1.334297e+00	1.323204e+00	1.311954e+00	1.297412e+00	1.287768e+00	1.294170e+00	1.304393e+00	1.322721e+00	1.349048e+00	1.370225e+00	1.413944e+00	1.455357e+00	1.475561e+00	1.496127e+00	1.505133e+00	1.496063e+00	1.484675e+00	1.471568e+00	1.426333e+00	1.332977e+00	9.546664e-01	7.524536e-01	7.557484e-01	7.688885e-01	7.866490e-01	8.062948e-01	8.220676e-01	8.403044e-01	8.532182e-01	8.595081e-01	8.662218e-01	8.649434e-01	8.591135e-01	8.559757e-01	8.503746e-01	8.459733e-01	8.387270e-01	8.303298e-01	8.251305e-01	8.188322e-01	8.134497e-01	8.067612e-01	7.997678e-01	7.945335e-01	7.887461e-01	7.837708e-01	7.775250e-01	7.712240e-01	7.652647e-01	7.584208e-01	7.514847e-01	7.437951e-01	7.362434e-01	7.279312e-01	7.198444e-01	7.117010e-01	7.033229e-01	6.959607e-01	6.879739e-01	6.805553e-01	6.728413e-01	6.650383e-01	6.575411e-01	6.496563e-01	6.418643e-01	6.334681e-01	6.245199e-01	6.152881e-01	6.052436e-01	5.930126e-01	5.791521e-01	5.581475e-01	5.320191e-01	4.771481e-01	5.653354e-01	5.659917e-01	5.638282e-01	5.627309e-01	5.615632e-01	5.603867e-01	5.596271e-01	5.581550e-01	5.572578e-01	5.565453e-01	5.551620e-01	5.547332e-01	5.530415e-01	5.525628e-01	5.510024e-01	5.489867e-01	5.504481e-01	5.500421e-01	5.526971e-01	5.548602e-01	5.585539e-01	5.703349e-01	5.823847e-01	5.957868e-01	6.103382e-01	6.223180e-01	6.342119e-01	6.420696e-01	6.430610e-01	6.428029e-01	6.407076e-01	6.355656e-01	6.339048e-01	6.320357e-01	6.314653e-01	6.405221e-01	6.479718e-01	6.579749e-01	6.837412e-01	7.105485e-01	7.380926e-01	7.778055e-01	8.180307e-01	8.550217e-01	9.027018e-01	9.411996e-01	9.742199e-01	9.922518e-01	9.819556e-01	9.727632e-01	9.599374e-01	9.440401e-01	9.302854e-01	9.147677e-01	9.046175e-01	8.992940e-01	8.985876e-01	8.982753e-01	8.951250e-01	8.950210e-01	8.938923e-01	8.972589e-01	8.981823e-01	8.943947e-01	8.934013e-01	8.899718e-01	8.911585e-01	8.880431e-01	8.744069e-01	8.666226e-01	8.508813e-01	8.305768e-01	8.121138e-01	7.825926e-01	7.578001e-01	7.352455e-01	7.082405e-01	6.850219e-01	6.652707e-01	6.453298e-01	6.289564e-01	6.164584e-01	6.053091e-01	5.945179e-01	5.858517e-01	5.762860e-01	5.667693e-01	5.565214e-01	5.450230e-01	5.295021e-01	5.112715e-01	4.840799e-01	4.455369e-01	3.996229e-01	3.345427e-01	2.445376e-01	1.494732e-01	4.174427e-02	
SCALARS Pressure_Coefficient double 1
LOOKUP_TABLE default