# vtk DataFile Version 3.0
vtk output
ASCII
DATASET UNSTRUCTURED_GRID
POINTS 1834 double
1.000000e+02	0.000000e+00	0.0	9.917900e+01	1.278772e+01	0.0	9.672949e+01	2.536546e+01	0.0	9.269168e+01	3.752670e+01	0.0	8.713187e+01	4.907176e+01	0.0	8.014136e+01	5.981105e+01	0.0	7.183494e+01	6.956826e+01	0.0	6.234898e+01	7.818315e+01	0.0	5.183926e+01	8.551428e+01	0.0	4.047833e+01	9.144126e+01	0.0	2.845276e+01	9.586679e+01	0.0	1.595999e+01	9.871818e+01	0.0	3.205158e+00	9.994862e+01	0.0	-9.602303e+00	9.953791e+01	0.0	-2.225209e+01	9.749279e+01	0.0	-3.453651e+01	9.384684e+01	0.0	-4.625383e+01	8.865993e+01	0.0	-5.721167e+01	8.201723e+01	0.0	-6.723009e+01	7.402780e+01	0.0	-7.614460e+01	6.482284e+01	0.0	-8.380881e+01	5.455349e+01	0.0	-9.009689e+01	4.338837e+01	0.0	-9.490557e+01	3.151082e+01	0.0	-9.815592e+01	1.911586e+01	0.0	-9.979454e+01	6.407022e+00	0.0	-9.979454e+01	-6.407022e+00	0.0	-9.815592e+01	-1.911586e+01	0.0	-9.490557e+01	-3.151082e+01	0.0	-9.009689e+01	-4.338837e+01	0.0	-8.380881e+01	-5.455349e+01	0.0	-7.614460e+01	-6.482284e+01	0.0	-6.723009e+01	-7.402780e+01	0.0	-5.721167e+01	-8.201723e+01	0.0	-4.625383e+01	-8.865993e+01	0.0	-3.453651e+01	-9.384684e+01	0.0	-2.225209e+01	-9.749279e+01	0.0	-9.602303e+00	-9.953791e+01	0.0	3.205158e+00	-9.994862e+01	0.0	1.595999e+01	-9.871818e+01	0.0	2.845276e+01	-9.586679e+01	0.0	4.047833e+01	-9.144126e+01	0.0	5.183926e+01	-8.551428e+01	0.0	6.234898e+01	-7.818315e+01	0.0	7.183494e+01	-6.956826e+01	0.0	8.014136e+01	-5.981105e+01	0.0	8.713187e+01	-4.907176e+01	0.0	9.269168e+01	-3.752670e+01	0.0	9.672949e+01	-2.536546e+01	0.0	9.917900e+01	-1.278772e+01	0.0	0.000000e+00	0.000000e+00	0.0	3.105461e-03	3.918688e-03	0.0	6.339784e-03	7.970367e-03	0.0	1.083624e-02	1.092339e-02	0.0	1.553645e-02	1.391231e-02	0.0	2.084234e-02	1.620142e-02	0.0	2.635504e-02	1.853001e-02	0.0	3.217686e-02	2.065354e-02	0.0	3.820034e-02	2.285490e-02	0.0	4.442519e-02	2.514781e-02	0.0	5.083676e-02	2.758127e-02	0.0	5.740649e-02	3.024048e-02	0.0	6.411474e-02	3.316348e-02	0.0	7.094858e-02	3.638886e-02	0.0	7.789297e-02	3.992897e-02	0.0	8.499736e-02	4.369181e-02	0.0	9.243184e-02	4.734671e-02	0.0	1.001087e-01	5.107130e-02	0.0	1.083619e-01	5.407468e-02	0.0	1.168577e-01	5.714237e-02	0.0	1.259290e-01	5.913081e-02	0.0	1.352475e-01	6.117344e-02	0.0	1.449565e-01	6.238921e-02	0.0	1.549458e-01	6.345323e-02	0.0	1.652111e-01	6.414806e-02	0.0	1.757563e-01	6.438811e-02	0.0	1.865494e-01	6.463381e-02	0.0	1.975788e-01	6.413711e-02	0.0	2.088495e-01	6.361468e-02	0.0	2.203397e-01	6.282833e-02	0.0	2.320406e-01	6.172231e-02	0.0	2.439676e-01	6.059492e-02	0.0	2.561013e-01	5.931435e-02	0.0	2.684466e-01	5.800030e-02	0.0	2.810072e-01	5.676965e-02	0.0	2.937803e-01	5.568224e-02	0.0	3.067418e-01	5.457880e-02	0.0	3.199149e-01	5.399213e-02	0.0	3.332613e-01	5.347065e-02	0.0	3.467694e-01	5.316982e-02	0.0	3.604301e-01	5.323394e-02	0.0	3.742252e-01	5.329870e-02	0.0	3.881325e-01	5.379469e-02	0.0	4.021470e-01	5.434529e-02	0.0	4.162486e-01	5.505172e-02	0.0	4.304196e-01	5.597907e-02	0.0	4.446574e-01	5.691077e-02	0.0	4.589355e-01	5.800869e-02	0.0	4.732502e-01	5.912130e-02	0.0	4.875906e-01	6.019099e-02	0.0	5.019425e-01	6.120709e-02	0.0	5.162870e-01	6.222266e-02	0.0	5.306300e-01	6.287116e-02	0.0	5.449363e-01	6.350749e-02	0.0	5.591972e-01	6.385205e-02	0.0	5.733985e-01	6.389716e-02	0.0	5.875187e-01	6.393722e-02	0.0	6.015333e-01	6.338629e-02	0.0	6.154394e-01	6.283962e-02	0.0	6.292065e-01	6.200584e-02	0.0	6.428229e-01	6.090364e-02	0.0	6.562933e-01	5.981324e-02	0.0	6.695522e-01	5.820107e-02	0.0	6.826432e-01	5.660812e-02	0.0	6.955296e-01	5.484355e-02	0.0	7.081977e-01	5.287986e-02	0.0	7.206701e-01	5.094649e-02	0.0	7.328989e-01	4.880493e-02	0.0	7.449134e-01	4.667942e-02	0.0	7.567022e-01	4.454742e-02	0.0	7.682561e-01	4.239312e-02	0.0	7.795813e-01	4.028147e-02	0.0	7.906735e-01	3.821623e-02	0.0	8.015280e-01	3.619523e-02	0.0	8.121447e-01	3.423589e-02	0.0	8.225187e-01	3.232863e-02	0.0	8.326494e-01	3.048209e-02	0.0	8.425358e-01	2.869901e-02	0.0	8.521745e-01	2.696770e-02	0.0	8.615695e-01	2.531149e-02	0.0	8.707151e-01	2.369922e-02	0.0	8.796150e-01	2.214745e-02	0.0	8.882678e-01	2.064285e-02	0.0	8.966745e-01	1.918081e-02	0.0	9.048368e-01	1.776078e-02	0.0	9.127572e-01	1.638283e-02	0.0	9.204351e-01	1.502812e-02	0.0	9.278762e-01	1.371106e-02	0.0	9.350823e-01	1.242322e-02	0.0	9.420554e-01	1.115480e-02	0.0	9.488032e-01	9.926995e-03	0.0	9.553242e-01	8.709733e-03	0.0	9.616285e-01	7.532945e-03	0.0	9.677161e-01	6.373870e-03	0.0	9.735952e-01	5.250438e-03	0.0	9.792672e-01	4.145348e-03	0.0	9.847393e-01	3.070961e-03	0.0	9.900151e-01	2.020177e-03	0.0	9.950991e-01	9.901846e-04	0.0	1.000000e+00	0.000000e+00	0.0	9.950056e-01	2.319035e-04	0.0	9.898209e-01	4.204447e-04	0.0	9.844414e-01	5.605571e-04	0.0	9.788628e-01	6.592611e-04	0.0	9.730807e-01	7.352822e-04	0.0	9.670901e-01	7.571884e-04	0.0	9.608867e-01	7.567493e-04	0.0	9.544661e-01	6.925501e-04	0.0	9.478238e-01	6.120342e-04	0.0	9.409568e-01	4.360943e-04	0.0	9.338594e-01	2.542508e-04	0.0	9.265311e-01	-3.502998e-05	0.0	9.189656e-01	-3.562888e-04	0.0	9.111609e-01	-7.325251e-04	0.0	9.031156e-01	-1.194102e-03	0.0	8.948232e-01	-1.669854e-03	0.0	8.862870e-01	-2.250673e-03	0.0	8.775002e-01	-2.859515e-03	0.0	8.684635e-01	-3.527262e-03	0.0	8.591767e-01	-4.267145e-03	0.0	8.496366e-01	-5.040697e-03	0.0	8.398552e-01	-5.987454e-03	0.0	8.298198e-01	-6.958793e-03	0.0	8.195723e-01	-8.302608e-03	0.0	8.090830e-01	-9.752465e-03	0.0	7.984098e-01	-1.161703e-02	0.0	7.875376e-01	-1.379011e-02	0.0	7.764733e-01	-1.621297e-02	0.0	7.652973e-01	-1.921158e-02	0.0	7.538941e-01	-2.227112e-02	0.0	7.423600e-01	-2.570733e-02	0.0	7.306318e-01	-2.927666e-02	0.0	7.186918e-01	-3.289277e-02	0.0	7.065372e-01	-3.651961e-02	0.0	6.941907e-01	-4.020370e-02	0.0	6.815760e-01	-4.363606e-02	0.0	6.687370e-01	-4.693843e-02	0.0	6.557248e-01	-5.024929e-02	0.0	6.423932e-01	-5.287420e-02	0.0	6.289163e-01	-5.552773e-02	0.0	6.152418e-01	-5.782569e-02	0.0	6.013823e-01	-5.976650e-02	0.0	5.874141e-01	-6.172253e-02	0.0	5.732678e-01	-6.296302e-02	0.0	5.590397e-01	-6.421025e-02	0.0	5.447219e-01	-6.511219e-02	0.0	5.303305e-01	-6.569243e-02	0.0	5.159007e-01	-6.624680e-02	0.0	5.014371e-01	-6.632557e-02	0.0	4.869660e-01	-6.640438e-02	0.0	4.725032e-01	-6.630922e-02	0.0	4.580638e-01	-6.609592e-02	0.0	4.436626e-01	-6.587141e-02	0.0	4.293155e-01	-6.557330e-02	0.0	4.150359e-01	-6.527659e-02	0.0	4.008380e-01	-6.500206e-02	0.0	3.867359e-01	-6.473917e-02	0.0	3.727435e-01	-6.448981e-02	0.0	3.588734e-01	-6.428551e-02	0.0	3.451392e-01	-6.408320e-02	0.0	3.315525e-01	-6.393851e-02	0.0	3.181253e-01	-6.381494e-02	0.0	3.048689e-01	-6.372071e-02	0.0	2.917933e-01	-6.370605e-02	0.0	2.789089e-01	-6.369161e-02	0.0	2.662254e-01	-6.380919e-02	0.0	2.537508e-01	-6.396311e-02	0.0	2.414939e-01	-6.418288e-02	0.0	2.294643e-01	-6.457430e-02	0.0	2.176641e-01	-6.495825e-02	0.0	2.061091e-01	-6.556081e-02	0.0	1.947966e-01	-6.621486e-02	0.0	1.837269e-01	-6.683631e-02	0.0	1.729018e-01	-6.739530e-02	0.0	1.623268e-01	-6.794137e-02	0.0	1.519949e-01	-6.790745e-02	0.0	1.419145e-01	-6.771457e-02	0.0	1.321308e-01	-6.708593e-02	0.0	1.226955e-01	-6.547636e-02	0.0	1.135120e-01	-6.390974e-02	0.0	1.049441e-01	-6.103079e-02	0.0	9.669015e-02	-5.795641e-02	0.0	8.879721e-02	-5.469029e-02	0.0	8.144313e-02	-5.082920e-02	0.0	7.430816e-02	-4.708317e-02	0.0	6.753530e-02	-4.319138e-02	0.0	6.103426e-02	-3.930854e-02	0.0	5.472142e-02	-3.557573e-02	0.0	4.854409e-02	-3.207618e-02	0.0	4.256730e-02	-2.869025e-02	0.0	3.666230e-02	-2.564771e-02	0.0	3.094978e-02	-2.271591e-02	0.0	2.541073e-02	-1.992269e-02	0.0	2.010719e-02	-1.714046e-02	0.0	1.508174e-02	-1.427969e-02	0.0	1.044388e-02	-1.118806e-02	0.0	6.154197e-03	-7.954783e-03	0.0	2.422740e-03	-4.350203e-03	0.0	6.257293e-02	-6.290727e-02	0.0	7.072813e-02	-6.015014e-02	0.0	6.351951e-02	-5.361428e-02	0.0	8.714175e+01	2.687808e+01	0.0	8.228463e+01	3.604150e+01	0.0	7.747345e+01	2.640738e+01	0.0	7.565281e+01	-1.246291e+01	0.0	7.566073e+01	-2.504928e+01	0.0	8.709705e+01	-1.787958e+01	0.0	8.672089e+01	-4.278939e+00	0.0	3.103627e+01	3.187443e+01	0.0	3.881076e+01	2.769633e+01	0.0	4.164012e+01	3.758140e+01	0.0	7.321601e+01	3.423151e+01	0.0	6.885424e+01	-3.647404e+01	0.0	7.615312e+01	-4.360491e+01	0.0	8.129949e+01	-3.655096e+01	0.0	8.669569e+01	-2.847439e+01	0.0	5.403089e+01	2.277941e+01	0.0	4.305013e+01	1.872731e+01	0.0	5.160006e+01	1.298550e+01	0.0	6.425597e+01	-5.254855e+01	0.0	6.109219e+01	-5.971667e+01	0.0	6.899056e+01	-6.002785e+01	0.0	6.809563e+01	5.966256e+01	0.0	7.242925e+01	5.056089e+01	0.0	5.757250e+01	6.579351e+01	0.0	4.832788e+01	-6.467836e+01	0.0	4.605985e+01	-7.400292e+01	0.0	5.434155e+01	-7.218515e+01	0.0	6.845924e+01	-4.528455e+01	0.0	5.119820e+01	7.533410e+01	0.0	2.629655e+01	5.480849e+01	0.0	2.003801e+01	6.411834e+01	0.0	1.605120e+01	5.276213e+01	0.0	5.409713e+01	-5.495220e+01	0.0	5.590733e+01	-6.378631e+01	0.0	2.858156e+01	7.478454e+01	0.0	4.027674e+01	7.895972e+01	0.0	3.030772e+01	8.543966e+01	0.0	3.710098e+01	-6.745480e+01	0.0	2.759833e+01	-7.641746e+01	0.0	3.868959e+01	-8.018202e+01	0.0	2.067573e-01	3.813814e+01	0.0	7.177673e+00	4.902573e+01	0.0	-2.582174e+00	5.225300e+01	0.0	9.297506e+00	7.851356e+01	0.0	1.780956e+01	7.521223e+01	0.0	1.613035e+01	8.273793e+01	0.0	8.536678e-01	-1.133378e-02	0.0	8.450880e-01	-1.108027e-02	0.0	8.464947e-01	-2.032925e-02	0.0	4.092618e-01	6.399267e-02	0.0	3.956130e-01	6.416647e-02	0.0	4.617928e-01	7.015643e-02	0.0	4.445483e-01	7.544834e-02	0.0	4.500372e-01	6.494375e-02	0.0	4.302261e-01	6.902359e-02	0.0	4.402520e-01	6.419450e-02	0.0	3.925739e-01	2.087537e-01	0.0	4.655845e-01	2.257155e-01	0.0	4.051158e-01	2.787031e-01	0.0	4.207612e-01	6.329957e-02	0.0	9.555294e-01	-1.145286e-02	0.0	9.601161e-01	-8.442834e-03	0.0	9.549461e-01	-6.145537e-03	0.0	1.370997e-01	-1.331418e-01	0.0	1.399686e-01	-1.089621e-01	0.0	1.213139e-01	-1.128461e-01	0.0	1.204273e-01	-8.409516e-02	0.0	1.277018e-01	-7.487132e-02	0.0	1.195052e-01	-7.394340e-02	0.0	7.630183e-01	-2.995331e-02	0.0	7.763535e-01	-2.783932e-02	0.0	7.845496e-01	-4.248457e-02	0.0	7.678718e-01	-5.418670e-02	0.0	7.855955e-01	-6.081749e-02	0.0	7.299662e-01	-3
[...]
POINT_DATA 1834

SCALARS Density double 1
LOOKUP_TABLE default
1.291408e+00	1.291472e+00	1.291982e+00	1.292207e+00	1.292123e+00	1.292049e+00	1.292017e+00	1.291970e+00	1.291911e+00	1.291858e+00	1.291817e+00	1.291802e+00	1.291812e+00	1.291868e+00	1.291949e+00	1.292034e+00	1.292109e+00	1.292166e+00	1.292210e+00	1.292242e+00	1.292264e+00	1.292282e+00	1.292294e+00	1.292306e+00	1.292315e+00	1.292325e+00	1.292336e+00	1.292349e+00	1.292365e+00	1.292386e+00	1.292413e+00	1.292447e+00	1.292495e+00	1.292547e+00	1.292613e+00	1.292686e+00	1.292764e+00	1.292816e+00	1.292825e+00	1.292796e+00	1.292739e+00	1.292670e+00	1.292599e+00	1.292529e+00	1.292457e+00	1.292407e+00	1.292427e+00	1.292306e+00	1.291857e+00	1.549861e+00	1.289609e+00	1.267435e+00	1.183736e+00	1.189499e+00	1.202776e+00	1.246443e+00	1.269859e+00	1.296047e+00	1.310505e+00	1.321134e+00	1.325274e+00	1.319535e+00	1.302512e+00	1.268978e+00	1.205827e+00	1.139394e+00	1.040161e+00	9.575040e-01	8.702114e-01	7.897704e-01	7.387937e-01	6.815000e-01	6.526255e-01	6.155135e-01	6.008206e-01	5.732038e-01	5.451856e-01	5.394436e-01	5.259729e-01	5.191377e-01	5.200641e-01	5.212869e-01	5.319049e-01	5.471079e-01	5.626545e-01	5.883348e-01	6.222196e-01	6.880931e-01	9.319731e-01	1.177960e+00	1.207554e+00	1.199318e+00	1.187099e+00	1.186046e+00	1.178394e+00	1.167339e+00	1.155352e+00	1.137227e+00	1.117684e+00	1.099589e+00	1.072166e+00	1.050957e+00	1.035604e+00	1.011038e+00	1.001783e+00	9.850743e-01	9.787805e-01	9.904330e-01	9.938384e-01	1.010238e+00	1.016578e+00	1.032153e+00	1.062280e+00	1.076004e+00	1.096270e+00	1.113777e+00	1.129563e+00	1.149966e+00	1.163058e+00	1.176164e+00	1.189303e+00	1.198935e+00	1.207806e+00	1.215735e+00	1.222668e+00	1.229373e+00	1.234870e+00	1.240328e+00	1.244702e+00	1.248682e+00	1.252498e+00	1.255851e+00	1.259159e+00	1.262756e+00	1.265695e+00	1.269207e+00	1.273177e+00	1.276484e+00	1.281307e+00	1.285384e+00	1.290278e+00	1.295818e+00	1.301356e+00	1.307968e+00	1.315495e+00	1.323726e+00	1.338379e+00	1.356472e+00	1.341381e+00	1.425900e+00	1.399346e+00	1.401718e+00	1.402089e+00	1.403039e+00	1.404141e+00	1.404583e+00	1.406341e+00	1.406517e+00	1.407449e+00	1.408349e+00	1.406787e+00	1.408197e+00	1.406806e+00	1.407351e+00	1.407626e+00	1.406901e+00	1.408618e+00	1.408966e+00	1.412817e+00	1.414430e+00	1.421045e+00	1.424181e+00	1.425942e+00	1.429089e+00	1.423394e+00	1.423680e+00	1.412909e+00	1.398994e+00	1.386678e+00	1.362713e+00	1.340872e+00	1.319208e+00	1.287900e+00	1.257556e+00	1.235854e+00	1.190938e+00	1.164949e+00	1.148910e+00	1.120710e+00	1.108823e+00	1.080431e+00	1.073155e+00	1.079105e+00	1.076518e+00	1.091526e+00	1.096870e+00	1.113856e+00	1.137053e+00	1.150400e+00	1.169956e+00	1.184772e+00	1.197555e+00	1.210837e+00	1.220148e+00	1.227531e+00	1.234740e+00	1.239752e+00	1.244832e+00	1.249016e+00	1.251651e+00	1.255924e+00	1.257046e+00	1.260570e+00	1.262241e+00	1.260498e+00	1.262260e+00	1.257546e+00	1.254533e+00	1.247898e+00	1.227025e+00	1.210830e+00	1.197895e+00	1.115278e+00	9.276723e-01	8.078014e-01	7.789873e-01	8.391112e-01	8.867481e-01	9.717498e-01	1.110554e+00	1.152822e+00	1.234248e+00	1.305377e+00	1.346187e+00	1.397424e+00	1.437928e+00	1.463887e+00	1.488862e+00	1.506089e+00	1.516119e+00	1.528112e+00	1.538689e+00	1.550900e+00	1.572040e+00	1.597903e+00	1.613075e+00	1.699523e+00	1.387191e+00	1.355125e+00	1.397457e+00	1.292080e+00	1.292120e+00	1.292045e+00	1.292072e+00	1.292328e+00	1.292150e+00	1.291745e+00	1.291708e+00	1.291938e+00	1.291864e+00	1.292069e+00	1.292423e+00	1.292404e+00	1.292370e+00	1.292333e+00	1.292034e+00	1.291962e+00	1.291797e+00	1.292490e+00	1.292537e+00	1.292502e+00	1.291998e+00	1.292029e+00	1.291946e+00	1.292639e+00	1.292681e+00	1.292620e+00	1.292432e+00	1.291905e+00	1.291673e+00	1.291631e+00	1.291504e+00	1.292559e+00	1.292585e+00	1.291759e+00	1.291841e+00	1.291800e+00	1.292740e+00	1.292812e+00	1.292740e+00	1.291032e+00	1.291330e+00	1.291396e+00	1.291688e+00	1.291694e+00	1.291725e+00	1.413540e+00	1.416360e+00	1.414412e+00	1.182569e+00	1.183747e+00	1.144180e+00	1.154724e+00	1.157272e+00	1.165343e+00	1.164271e+00	9.296005e-01	1.161454e+00	9.532132e-01	1.179526e+00	1.403403e+00	1.403405e+00	1.404572e+00	1.139915e+00	1.050773e+00	1.124120e+00	1.033548e+00	9.217040e-01	9.864625e-01	1.389579e+00	1.403913e+00	1.399177e+00	1.379667e+00	1.387642e+00	1.337103e+00	1.315280e+00	1.258208e+00	1.241540e+00	1.291811e+00	1.384898e+00	1.365409e+00	1.374611e+00	1.188526e+00	1.164666e+00	1.163315e+00	8.322985e-01	1.133242e+00	7.710107e-01	1.246608e+00	1.246794e+00	1.133288e+00	1.143034e+00	1.107736e+00	6.051061e-01	5.611063e-01	5.701960e-01	1.084404e+00	1.103545e+00	1.140015e+00	8.029887e-01	6.639220e-01	1.121820e+00	1.131443e+00	1.119686e+00	1.054094e+00	1.072098e+00	1.057762e+00	1.215596e+00	1.187094e+00	1.146735e+00	6.134310e-01	1.043784e+00	6.928713e-01	9.881396e-01	1.089788e+00	1.072888e+00	1.026835e+00	1.023952e+00	1.036791e+00	5.314397e-01	5.407430e-01	1.028791e+00	1.045047e+00	1.023935e+00	1.231042e+00	1.230519e+00	1.245890e+00	7.000311e-01	6.797194e-01	5.287727e-01	5.298423e-01	1.016523e+00	1.001593e+00	1.012402e+00	1.024293e+00	1.010256e+00	1.290559e+00	1.290578e+00	1.403300e+00	1.404266e+00	1.401744e+00	1.401679e+00	1.404575e+00	1.405584e+00	1.394610e+00	1.396838e+00	1.399403e+00	1.046597e+00	1.406773e+00	1.406099e+00	1.406280e+00	1.274125e+00	1.272534e+00	1.406833e+00	1.406838e+00	8.700276e-01	9.904161e-01	1.095361e+00	1.177221e+00	1.186490e+00	1.207423e+00	1.224369e+00	1.214312e+00	1.208361e+00	1.142879e+00	1.068069e+00	1.222971e+00	1.249816e+00	1.257011e+00	1.258958e+00	1.218958e+00	1.215826e+00	1.219112e+00	1.303337e+00	1.281851e+00	1.250783e+00	1.258473e+00	1.254940e+00	1.252086e+00	1.249844e+00	1.241236e+00	1.284860e+00	1.283341e+00	1.282911e+00	1.291527e+00	1.291214e+00	1.286898e+00	1.292477e+00	1.286283e+00	1.259386e+00	1.279282e+00	1.276309e+00	1.293101e+00	1.283323e+00	1.305467e+00	1.289753e+00	1.283263e+00	1.285627e+00	1.301104e+00	1.288502e+00	1.293541e+00	1.421557e+00	1.379035e+00	1.290924e+00	1.270711e+00	1.259426e+00	1.321588e+00	1.315465e+00	1.357090e+00	1.367110e+00	1.345049e+00	1.482873e+00	1.475462e+00	1.509356e+00	1.329540e+00	1.331822e+00	1.629303e+00	1.611178e+00	1.586248e+00	1.573491e+00	1.551311e+00	1.550789e+00	1.561933e+00	1.540771e+00	1.397409e+00	1.375713e+00	1.566329e+00	1.560917e+00	1.579760e+00	1.411271e+00	1.418555e+00	1.415286e+00	1.355630e+00	1.334238e+00	1.348830e+00	1.400495e+00	1.400459e+00	1.389619e+00	1.196536e+00	1.419792e+00	1.422082e+00	1.125797e+00	1.145334e+00	1.409057e+00	1.408645e+00	1.409910e+00	1.408726e+00	1.234370e+00	1.241945e+00	1.240606e+00	1.242580e+00	1.238556e+00	1.236011e+00	1.252184e+00	1.263762e+00	1.268630e+00	1.263838e+00	1.243987e+00	1.249877e+00	1.278411e+00	1.260888e+00	1.257264e+00	1.252717e+00	1.218176e+00	1.185917e+00	1.212925e+00	1.411544e+00	1.407367e+00	1.406439e+00	1.408889e+00	1.403188e+00	1.403115e+00	1.399367e+00	1.097005e+00	1.109155e+00	1.256203e+00	1.259645e+00	1.239846e+00	1.102941e+00	1.116390e+00	1.119660e+00	1.269992e+00	1.264411e+00	1.268876e+00	1.151262e+00	1.171257e+00	1.162985e+00	1.098383e+00	1.113297e+00	1.113318e+00	1.107879e+00	1.157690e+00	1.138292e+00	1.145586e+00	1.180621e+00	1.169015e+00	1.143906e+00	1.160052e+00	1.169370e+00	1.292840e+00	1.292788e+00	1.301063e+00	1.293262e+00	1.281465e+00	1.178942e+00	1.194077e+00	1.198692e+00	1.217593e+00	1.225474e+00	1.227237e+00	1.270638e+00	1.260251e+00	1.253670e+00	1.261402e+00	1.263617e+00	1.262717e+00	1.265085e+00	1.236336e+00	1.234123e+00	1.293065e+00	1.297665e+00	1.295863e+00	1.228971e+00	1.223434e+00	1.260591e+00	1.266849e+00	1.244096e+00	1.225066e+00	1.221631e+00	1.230096e+00	1.189887e+00	1.187255e+00	1.174876e+00	1.206718e+00	1.215350e+00	1.216647e+00	1.178422e+00	1.189300e+00	1.182277e+00	1.209273e+00	1.200009e+00	1.170309e+00	1.154011e+00	1.156493e+00	1.167871e+00	1.164491e+00	1.168899e+00	1.291474e+00	1.128343e+00	1.109843e+00	1.120888e+00	1.146439e+00	1.134072e+00	1.144267e+00	1.106504e+00	1.091186e+00	1.055504e+00	1.028162e+00	1.034957e+00	1.018028e+00	1.263171e+00	1.274142e+00	1.275936e+00	5.433902e-01	5.489643e-01	1.291936e+00	1.291851e+00	6.605596e-01	6.361307e-01	6.034514e-01	1.283263e+00	1.278136e+00	1.291835e+00	7.123489e-01	7.163156e-01	6.559298e-01	6.122415e-01	5.946606e-01	1.291998e+00	1.086897e+00	1.092688e+00	9.879052e-01	6.689567e-01	1.188635e+00	1.260870e+00	9.971663e-01	1.091993e+00	1.244220e+00	1.230483e+00	1.184617e+00	1.199281e+00	1.266800e+00	1.281522e+00	1.297744e+00	1.297187e+00	1.279453e+00	1.316869e+00	1.320932e+00	1.318418e+00	1.254335e+00	1.259997e+00	1.105636e+00	1.012543e+00	1.134416e+00	1.320193e+00	1.323817e+00	1.255590e+00	1.258557e+00	1.308764e+00	1.314934e+00	1.303045e+00	1.314835e+00	1.304291e+00	1.312668e+00	1.292090e+00	1.292202e+00	1.291432e+00	1.291729e+00	1.291178e+00	1.292102e+00	1.291411e+00	1.292490e+00	1.292627e+00	1.292765e+00	1.292227e+00	1.292215e+00	1.292189e+00	1.313493e+00	1.292301e+00	1.292278e+00	1.292303e+00	1.292241e+00	1.292250e+00	1.292329e+00	1.292354e+00	1.292360e+00	1.292379e+00	1.292453e+00	1.292396e+00	1.292409e+00	1.292402e+00	1.292389e+00	1.292349e+00	1.292287e+00	1.292247e+00	1.292519e+00	1.292481e+00	1.292444e+00	1.292539e+00	1.296266e+00	1.299068e+00	1.299062e+00	1.292524e+00	1.295789e+00	1.294262e+00	1.295227e+00	1.295164e+00	1.297377e+00	1.292609e+00	1.292589e+00	1.429891e+00	1.408092e+00	1.386656e+00	1.543215e+00	1.553582e+00	1.568273e+00	1.292761e+00	1.292658e+00	1.292712e+00	1.293115e+00	1.293127e+00	1.293223e+00	1.298659e+00	1.297025e+00	1.298330e+00	1.478227e+00	1.495362e+00	1.492258e+00	1.292933e+00	1.292866e+00	1.292892e+00	1.250379e+00	1.253153e+00	1.247850e+00	1.235776e+00	1.231629e+00	1.252292e+00	1.237693e+00	1.239540e+00	1.243707e+00	1.300460e+00	1.301344e+00	1.412500e+00	1.352528e+00	1.353987e+00	1.418576e+00	1.437170e+00	1.292829e+00	1.292871e+00	1.370164e+00	1.354279e+00	1.444349e+00	1.471899e+00	1.444031e+00	1.292823e+00	1.292832e+00	1.292768e+00	1.292317e+00	1.291817e+00	1.290583e+00	8.781240e-01	8.867813e-01	1.291887e+00	1.292083e+00	1.291915e+00	1.346598e+00	1.380996e+00	1.366153e+00	1.392016e+00	1.293146e+00	1.292986e+00	1.293729e+00	1.292871e+00	1.292712e+00	1.292889e+00	1.292081e+00	1.291928e+00	1.292012e+00	1.292183e+00	1.293316e+00	1.293727e+00	1.293398e+00	1.292717e+00	1.291851e+00	1.291809e+00	1.291771e+00	1.291752e+00	1.291689e+00	1.291568e+00	1.291915e+00	1.291784e+00	1.292440e+00	1.291858e+00	1.291877e+00	1.292144e+00	1.292954e+00	1.293255e+00	1.293547e+00	1.293895e+00	1.293295e+00	1.293157e+00	1.291348e+00	1.293269e+00	1.248685e+00	1.292115e+00	1.292221e+00	1.293370e+00	1.468504e+00	1.489624e+00	1.291753e+00	1.291467e+00	1.291728e+00	1.291679e+00	1.291739e+00	1.289666e+00	1.290415e+00	1.289698e+00	1.288379e+00	1.288822e+00	1.292532e+00	1.292487e+00	1.292789e+00	1.292716e+00	1.292609e+00	1.292342e+00	1.292368e+00	1.292329e+00	1.292299e+00	1.292299e+00	1.292267e+00	1.292232e+00	1.292193e+00	1.291780e+00	1.291737e+00	1.292896e+00	1.293026e+00	1.293019e+00	1.292951e+00	1.292068e+00	1.292018e+00	1.291940e+00	1.291857e+00	1.291919e+00	1.291936e+00	1.291783e+00	1.291864e+00	1.292249e+00	1.292402e+00	1.292959e+00	1.292702e+00	1.292853e+00	1.292530e+00	1.292634e+00	1.292510e+00	1.292062e+00	1.292127e+00	1.291731e+00	1.291679e+00	1.292424e+00	1.293054e+00	1.292839e+00	1.298312e+00	1.285237e+00	1.237442e+00	1.317520e+00	1.291707e+00	1.293082e+00	1.291872e+00	1.291720e+00	1.291846e+00	1.292148e+00	1.292016e+00	1.292430e+00	1.292460e+00	1.291443e+00	1.290978e+00	1.291602e+00	1.292920e+00	1.292686e+00	1.293825e+00	1.293662e+00	1.294001e+00	1.292648e+00	1.291468e+00	1.292868e+00	1.293268e+00	1.296172e+00	1.295284e+00	1.297217e+00	1.290437e+00	1.292261e+00	1.292486e+00	1.291955e+00	1.291563e+00	1.292271e+00	1.292364e+00	1.292413e+00	1.292428e+00	1.292435e+00	1.292137e+00	1.292033e+00	1.292973e+00	1.293102e+00	1.291652e+00	1.291715e+00	1.292793e+00	1.292709e+00	1.292811e+00	1.291753e+00	1.291807e+00	1.291746e+00	1.292783e+00	1.292048e+00	1.292422e+00	1.292471e+00	1.292562e+00	1.292662e+00	1.292322e+00	1.292982e+00	1.291543e+00	1.292578e+00	1.292080e+00	1.291876e+00	1.292749e+00	1.291613e+00	1.291996e+00	1.291737e+00	1.292665e+00	1.291943e+00	1.291834e+00	1.292537e+00	1.291604e+00	1.291962e+00	1.291933e+00	1.292482e+00	1.292536e+00	1.291974e+00	1.293167e+00	1.292881e+00	1.291667e+00	1.291233e+00	1.291734e+00	1.292960e+00	1.291888e+00	1.291791e+00	1.291754e+00	1.294657e+00	1.295309e+00	1.296286e+00	1.294503e+00	1.293741e+00	1.292477e+00	1.292601e+00	1.292543e+00	1.292358e+00	1.288892e+00	1.286564e+00	1.292623e+00	1.294579e+00	1.292542e+00	1.290248e+00	1.292370e+00	1.291584e+00	1.292274e+00	1.293834e+00	1.294577e+00	1.522055e+00	1.290910e+00	1.288279e+00	1.290732e+00	1.289530e+00	1.287393e+00	1.291023e+00	1.291827e+00	1.290995e+00	1.289941e+00	1.294418e+00	1.288785e+00	1.295016e+00	1.402860e+00	1.292964e+00	1.288215e+00	1.292064e+00	1.291796e+00	1.293012e+00	6.498242e-01	1.289887e+00	1.290842e+00	1.296988e+00	1.294756e+00	1.297395e+00	1.294345e+00	1.293873e+00	1.289120e+00	1.283883e+00	1.289494e+00	1.291766e+00	1.300607e+00	1.298893e+00	1.298396e+00	1.286096e+00	1.281621e+00	1.297932e+00	1.295336e+00	1.288885e+00	1.216467e+00	1.217781e+00	1.296708e+00	1.295469e+00	1.292872e+00	5.662206e-01	1.301174e+00	1.316916e+00	1.323409e+00	1.291361e+00	1.263774e+00	1.277076e+00	1.286999e+00	1.302374e+00	1.302612e+00	1.328450e+00	1.359922e+00	1.375273e+00	1.297329e+00	1.300549e+00	1.300361e+00	1.291768e+00	1.283747e+00	1.286938e+00	1.281277e+00	1.292353e+00	1.376862e+00	1.379327e+00	1.386389e+00	1.302707e+00	1.303215e+00	1.302302e+00	1.292781e+00	5.787852e-01	5.587793e-01	1.293606e+00	1.293765e+00	1.284857e+00	1.303550e+00	1.306063e+00	1.301772e+00	1.304029e+00	1.306103e+00	1.308127e+00	1.305087e+00	1.165023e+00	1.285856e+00	1.308571e+00	1.310038e+00	1.266790e+00	1.303914e+00	1.303591e+00	1.310465e+00	1.302257e+00	1.307138e+00	1.284789e+00	1.287497e+00	1.008248e+00	1.300602e+00	1.302410e+00	1.299150e+00	1.312676e+00	1.314045e+00	1.293736e+00	1.279046e+00	1.285589e+00	1.312665e+00	1.309784e+00	1.305130e+00	1.310488e+00	1.319333e+00	1.324131e+00	1.281569e+00	5.615082e-01	5.535133e-01	5.751522e-01	1.275522e+00	1.307661e+00	1.257729e+00	1.300787e+00	1.320166e+00	1.331038e+00	1.323792e+00	1.209814e+00	1.256502e+00	1.342282e+00	1.359426e+00	1.304819e+00	1.265348e+00	1.264513e+00	1.288079e+00	1.254933e+00	1.277982e+00	1.318771e+00	1.150616e+00	1.010730e+00	1.325005e+00	1.318644e+00	1.211624e+00	1.337788e+00	1.406986e+00	1.429885e+00	1.403889e+00	1.321216e+00	1.315255e+00	1.400230e+00	1.402615e+00	1.278161e+00	1.290934e+00	1.290998e+00	1.300796e+00	1.277434e+00	1.202975e+00	1.207032e+00	1.271777e+00	1.274726e+00	1.294288e+00	1.328817e+00	1.319229e+00	1.334701e+00	1.300798e+00	1.305560e+00	1.406619e+00	1.407331e+00	1.406994e+00	1.179287e+00	1.075676e+00	8.189840e-01	7.620324e-01	7.479774e-01	1.337908e+00	1.299716e+00	1.327309e+00	1.121477e+00	1.162332e+00	1.153362e+00	1.387001e+00	1.409638e+00	1.430598e+00	1.306743e+00	1.290652e+00	1.317938e+00	1.297706e+00	1.288286e+00	1.316490e+00	1.322293e+00	1.343720e+00	1.342935e+00	1.332924e+00	1.240539e+00	1.282200e+00	1.082776e+00	5.258511e-01	1.290528e+00	1.211332e+00	1.180587e+00	1.240773e+00	1.343823e+00	1.333621e+00	1.340692e+00	1.359716e+00	1.351029e+00	1.217927e+00	1.180054e+00	1.293633e+00	1.274719e+00	9.771611e-01	1.090087e+00	1.383141e+00	1.434981e+00	1.419566e+00	1.302046e+00	1.274937e+00	1.270387e+00	1.315831e+00	1.285404e+00	1.276098e+00	1.019566e+00	1.093992e+00	1.266579e+00	1.234560e+00	1.230421e+00	1.308921e+00	1.238230e+00	1.295588e+00	1.280482e+00	1.265331e+00	1.293859e+00	1.344905e+00	1.339551e+00	1.407516e+00	1.407488e+00	1.408155e+00	1.172369e+00	1.206529e+00	1.190399e+00	1.314437e+00	1.276469e+00	9.526647e-01	1.187984e+00	1.067029e+00	1.079529e+00	1.087536e+00	1.169459e+00	1.289300e+00	1.336812e+00	1.358892e+00	1.333080e+00	1.275342e+00	1.332146e+00	1.293655e+00	8.298722e-01	8.732262e-01	1.275911e+00	1.362723e+00	1.368034e+00	1.348731e+00	1.331145e+00	1.258162e+00	1.258475e+00	1.217030e+00	1.272457e+00	6.378497e-01	7.187660e-01	1.325117e+00	1.309819e+00	1.603944e+00	1.632157e+00	5.381656e-01	5.396666e-01	1.089192e+00	1.092763e+00	1.138053e+00	1.180511e+00	1.261747e+00	1.246910e+00	1.210025e+00	1.349684e+00	1.338043e+00	1.370916e+00	1.358666e+00	1.365430e+00	1.362964e+00	1.266581e+00	1.270084e+00	1.310579e+00	1.285411e+00	1.273500e+00	1.291723e+00	1.281898e+00	1.136447e+00	1.088201e+00	1.093410e+00	1.446201e+00	1.244283e+00	1.211803e+00	1.264709e+00	1.263552e+00	1.262215e+00	1.247563e+00	1.223553e+00	1.233409e+00	1.195613e+00	1.191655e+00	1.247961e+00	1.355609e+00	1.199585e+00	1.209536e+00	1.256257e+00	1.294237e+00	8.456035e-01	9.397758e-01	1.354521e+00	1.381839e+00	1.393302e+00	1.395100e+00	1.132204e+00	1.238145e+00	1.308461e+00	1.283308e+00	1.341353e+00	1.224493e+00	1.252364e+00	1.198396e+00	1.413947e+00	1.381369e+00	1.087037e+00	1.282994e+00	1.284592e+00	1.307971e+00	1.301173e+00	1.234569e+00	1.218683e+00	1.370689e+00	1.406801e+00	1.308254e+00	1.327278e+00	1.348191e+00	1.350348e+00	1.352896e+00	1.162827e+00	1.140609e+00	1.454135e+00	1.462921e+00	1.361486e+00	1.442042e+00	1.265118e+00	1.317350e+00	1.292658e+00	1.056441e+00	1.085332e+00	1.074957e+00	1.228394e+00	1.205712e+00	1.186844e+00	1.212471e+00	1.223741e+00	1.185092e+00	1.193317e+00	1.186038e+00	1.193123e+00	1.122049e+00	1.275302e+00	1.243519e+00	1.314824e+00	1.486606e+00	1.441231e+00	1.459763e+00	1.458194e+00	1.471327e+00	1.509981e+00	1.486665e+00	1.225717e+00	1.178781e+00	1.187859e+00	1.196090e+00	5.291304e-01	8.322856e-01	1.219274e+00	1.253228e+00	1.010663e+00	1.052217e+00	9.553456e-01	1.360957e+00	1.362219e+00	1.370212e+00	1.268368e+00	1.277849e+00	1.253493e+00	1.265828e+00	1.251144e+00	1.228786e+00	1.403303e+00	1.350535e+00	1.157827e+00	1.381703e+00	1.392662e+00	1.421279e+00	1.289446e+00	1.289488e+00	1.344584e+00	1.257703e+00	1.117181e+00	1.037579e+00	1.065290e+00	1.254066e+00	1.389484e+00	9.940997e-01	9.898202e-01	1.205089e+00	1.114368e+00	5.815687e-01	7.899540e-01	9.005923e-01	8.383297e-01	9.721584e-01	1.066678e+00	1.384791e+00	1.388493e+00	1.382342e+00	1.122283e+00	1.154985e+00	1.258798e+00	1.258814e+00	1.235355e+00	1.178429e+00	1.094892e+00	1.101693e+00	1.299611e+00	1.293492e+00	1.204076e+00	1.222755e+00	1.088638e+00	9.950150e-01	1.185098e+00	1.186883e+00	1.200577e+00	1.628884e+00	1.604891e+00	1.624629e+00	1.254659e+00	1.245780e+00	1.243820e+00	1.183908e+00	1.133461e+00	1.134350e+00	1.127112e+00	1.488717e+00	1.495311e+00	1.457087e+00	1.469164e+00	1.336138e+00	1.317795e+00	1.316519e+00	6.167418e-01	1.366572e+00	1.257779e+00	1.259040e+00	1.260904e+00	1.263940e+00	1.236774e+00	1.246367e+00	1.228362e+00	1.337254e+00	5.780077e-01	6.330733e-01	1.407080e+00	1.406967e+00	1.393527e+00	1.384635e+00	1.276952e+00	1.267906e+00	1.278130e+00	1.306443e+00	1.313209e+00	7.719193e-01	1.170125e+00	1.350523e+00	1.209051e+00	1.200439e+00	1.211805e+00	1.221480e+00	1.052692e+00	1.243772e+00	1.306782e+00	1.323625e+00	1.590636e+00	1.085086e+00	1.127569e+00	1.197982e+00	1.401442e+00	1.402137e+00	1.399243e+00	1.044360e+00	1.029296e+00	1.044431e+00	1.062195e+00	1.082523e+00	1.065565e+00	1.065636e+00	1.397259e+00	1.084529e+00	1.090082e+00	1.106755e+00	1.244826e+00	1.250356e+00	1.246074e+00	1.241681e+00	1.310058e+00	1.345720e+00	1.321804e+00	1.137575e+00	1.393860e+00	1.401247e+00	1.233750e+00	1.222066e+00	1.287383e+00	7.851955e-01	1.125608e+00	1.245718e+00	1.513680e+00	1.167799e+00	1.039413e+00	1.138252e+00	1.141476e+00	1.220241e+00	5.441621e-01	5.494836e-01	5.277618e-01	1.301046e+00	9.848461e-01	8.781624e-01	7.000811e-01	5.462481e-01	5.623678e-01	1.138835e+00	1.158781e+00	1.143807e+00	1.169762e+00	1.177911e+00	1.357404e+00	1.330029e+00	1.395821e+00	1.444284e+00	1.418081e+00	1.258406e+00	1.239122e+00	1.262056e+00	1.259134e+00	1.258694e+00	1.255451e+00	1.179396e+00	1.214228e+00	1.301650e+00	1.319933e+00	1.368242e+00	1.364074e+00	1.365285e+00	1.388003e+00	1.394738e+00	1.441013e+00	1.500423e+00	1.530666e+00	9.959744e-01	1.240686e+00	1.230523e+00	1.414277e+00	1.419090e+00	1.416876