# vtk DataFile Version 3.0
vtk output
ASCII
DATASET UNSTRUCTURED_GRID
POINTS 198 double
0.000000e+00	0.000000e+00	0.0	3.105461e-03	3.918688e-03	0.0	6.339784e-03	7.970367e-03	0.0	1.083624e-02	1.092339e-02	0.0	1.553645e-02	1.391231e-02	0.0	2.084234e-02	1.620142e-02	0.0	2.635504e-02	1.853001e-02	0.0	3.217686e-02	2.065354e-02	0.0	3.820034e-02	2.285490e-02	0.0	4.442519e-02	2.514781e-02	0.0	5.083676e-02	2.758127e-02	0.0	5.740649e-02	3.024048e-02	0.0	6.411474e-02	3.316348e-02	0.0	7.094858e-02	3.638886e-02	0.0	7.789297e-02	3.992897e-02	0.0	8.499736e-02	4.369181e-02	0.0	9.243184e-02	4.734671e-02	0.0	1.001087e-01	5.107130e-02	0.0	1.083619e-01	5.407468e-02	0.0	1.168577e-01	5.714237e-02	0.0	1.259290e-01	5.913081e-02	0.0	1.352475e-01	6.117344e-02	0.0	1.449565e-01	6.238921e-02	0.0	1.549458e-01	6.345323e-02	0.0	1.652111e-01	6.414806e-02	0.0	1.757563e-01	6.438811e-02	0.0	1.865494e-01	6.463381e-02	0.0	1.975788e-01	6.413711e-02	0.0	2.088495e-01	6.361468e-02	0.0	2.203397e-01	6.282833e-02	0.0	2.320406e-01	6.172231e-02	0.0	2.439676e-01	6.059492e-02	0.0	2.561013e-01	5.931435e-02	0.0	2.684466e-01	5.800030e-02	0.0	2.810072e-01	5.676965e-02	0.0	2.937803e-01	5.568224e-02	0.0	3.067418e-01	5.457880e-02	0.0	3.199149e-01	5.399213e-02	0.0	3.332613e-01	5.347065e-02	0.0	3.467694e-01	5.316982e-02	0.0	3.604301e-01	5.323394e-02	0.0	3.742252e-01	5.329870e-02	0.0	3.881325e-01	5.379469e-02	0.0	4.021470e-01	5.434529e-02	0.0	4.162486e-01	5.505172e-02	0.0	4.304196e-01	5.597907e-02	0.0	4.446574e-01	5.691077e-02	0.0	4.589355e-01	5.800869e-02	0.0	4.732502e-01	5.912130e-02	0.0	4.875906e-01	6.019099e-02	0.0	5.019425e-01	6.120709e-02	0.0	5.162870e-01	6.222266e-02	0.0	5.306300e-01	6.287116e-02	0.0	5.449363e-01	6.350749e-02	0.0	5.591972e-01	6.385205e-02	0.0	5.733985e-01	6.389716e-02	0.0	5.875187e-01	6.393722e-02	0.0	6.015333e-01	6.338629e-02	0.0	6.154394e-01	6.283962e-02	0.0	6.292065e-01	6.200584e-02	0.0	6.428229e-01	6.090364e-02	0.0	6.562933e-01	5.981324e-02	0.0	6.695522e-01	5.820107e-02	0.0	6.826432e-01	5.660812e-02	0.0	6.955296e-01	5.484355e-02	0.0	7.081977e-01	5.287986e-02	0.0	7.206701e-01	5.094649e-02	0.0	7.328989e-01	4.880493e-02	0.0	7.449134e-01	4.667942e-02	0.0	7.567022e-01	4.454742e-02	0.0	7.682561e-01	4.239312e-02	0.0	7.795813e-01	4.028147e-02	0.0	7.906735e-01	3.821623e-02	0.0	8.015280e-01	3.619523e-02	0.0	8.121447e-01	3.423589e-02	0.0	8.225187e-01	3.232863e-02	0.0	8.326494e-01	3.048209e-02	0.0	8.425358e-01	2.869901e-02	0.0	8.521745e-01	2.696770e-02	0.0	8.615695e-01	2.531149e-02	0.0	8.707151e-01	2.369922e-02	0.0	8.796150e-01	2.214745e-02	0.0	8.882678e-01	2.064285e-02	0.0	8.966745e-01	1.918081e-02	0.0	9.048368e-01	1.776078e-02	0.0	9.127572e-01	1.638283e-02	0.0	9.204351e-01	1.502812e-02	0.0	9.278762e-01	1.371106e-02	0.0	9.350823e-01	1.242322e-02	0.0	9.420554e-01	1.115480e-02	0.0	9.488032e-01	9.926995e-03	0.0	9.553242e-01	8.709733e-03	0.0	9.616285e-01	7.532945e-03	0.0	9.677161e-01	6.373870e-03	0.0	9.735952e-01	5.250438e-03	0.0	9.792672e-01	4.145348e-03	0.0	9.847393e-01	3.070961e-03	0.0	9.900151e-01	2.020177e-03	0.0	9.950991e-01	9.901846e-04	0.0	1.000000e+00	0.000000e+00	0.0	9.950056e-01	2.319035e-04	0.0	9.898209e-01	4.204447e-04	0.0	9.844414e-01	5.605571e-04	0.0	9.788628e-01	6.592611e-04	0.0	9.730807e-01	7.352822e-04	0.0	9.670901e-01	7.571884e-04	0.0	9.608867e-01	7.567493e-04	0.0	9.544661e-01	6.925501e-04	0.0	9.478238e-01	6.120342e-04	0.0	9.409568e-01	4.360943e-04	0.0	9.338594e-01	2.542508e-04	0.0	9.265311e-01	-3.502998e-05	0.0	9.189656e-01	-3.562888e-04	0.0	9.111609e-01	-7.325251e-04	0.0	9.031156e-01	-1.194102e-03	0.0	8.948232e-01	-1.669854e-03	0.0	8.862870e-01	-2.250673e-03	0.0	8.775002e-01	-2.859515e-03	0.0	8.684635e-01	-3.527262e-03	0.0	8.591767e-01	-4.267145e-03	0.0	8.496366e-01	-5.040697e-03	0.0	8.398552e-01	-5.987454e-03	0.0	8.298198e-01	-6.958793e-03	0.0	8.195723e-01	-8.302608e-03	0.0	8.090830e-01	-9.752465e-03	0.0	7.984098e-01	-1.161703e-02	0.0	7.875376e-01	-1.379011e-02	0.0	7.764733e-01	-1.621297e-02	0.0	7.652973e-01	-1.921158e-02	0.0	7.538941e-01	-2.227112e-02	0.0	7.423600e-01	-2.570733e-02	0.0	7.306318e-01	-2.927666e-02	0.0	7.186918e-01	-3.289277e-02	0.0	7.065372e-01	-3.651961e-02	0.0	6.941907e-01	-4.020370e-02	0.0	6.815760e-01	-4.363606e-02	0.0	6.687370e-01	-4.693843e-02	0.0	6.557248e-01	-5.024929e-02	0.0	6.423932e-01	-5.287420e-02	0.0	6.289163e-01	-5.552773e-02	0.0	6.152418e-01	-5.782569e-02	0.0	6.013823e-01	-5.976650e-02	0.0	5.874141e-01	-6.172253e-02	0.0	5.732678e-01	-6.296302e-02	0.0	5.590397e-01	-6.421025e-02	0.0	5.447219e-01	-6.511219e-02	0.0	5.303305e-01	-6.569243e-02	0.0	5.159007e-01	-6.624680e-02	0.0	5.014371e-01	-6.632557e-02	0.0	4.869660e-01	-6.640438e-02	0.0	4.725032e-01	-6.630922e-02	0.0	4.580638e-01	-6.609592e-02	0.0	4.436626e-01	-6.587141e-02	0.0	4.293155e-01	-6.557330e-02	0.0	4.150359e-01	-6.527659e-02	0.0	4.008380e-01	-6.500206e-02	0.0	3.867359e-01	-6.473917e-02	0.0	3.727435e-01	-6.448981e-02	0.0	3.588734e-01	-6.428551e-02	0.0	3.451392e-01	-6.408320e-02	0.0	3.315525e-01	-6.393851e-02	0.0	3.181253e-01	-6.381494e-02	0.0	3.048689e-01	-6.372071e-02	0.0	2.917933e-01	-6.370605e-02	0.0	2.789089e-01	-6.369161e-02	0.0	2.662254e-01	-6.380919e-02	0.0	2.537508e-01	-6.396311e-02	0.0	2.414939e-01	-6.418288e-02	0.0	2.294643e-01	-6.457430e-02	0.0	2.176641e-01	-6.495825e-02	0.0	2.061091e-01	-6.556081e-02	0.0	1.947966e-01	-6.621486e-02	0.0	1.837269e-01	-6.683631e-02	0.0	1.729018e-01	-6.739530e-02	0.0	1.623268e-01	-6.794137e-02	0.0	1.519949e-01	-6.790745e-02	0.0	1.419145e-01	-6.771457e-02	0.0	1.321308e-01	-6.708593e-02	0.0	1.226955e-01	-6.547636e-02	0.0	1.135120e-01	-6.390974e-02	0.0	1.049441e-01	-6.103079e-02	0.0	9.669015e-02	-5.795641e-02	0.0	8.879721e-02	-5.469029e-02	0.0	8.144313e-02	-5.082920e-02	0.0	7.430816e-02	-4.708317e-02	0.0	6.753530e-02	-4.319138e-02	0.0	6.103426e-02	-3.930854e-02	0.0	5.472142e-02	-3.557573e-02	0.0	4.854409e-02	-3.207618e-02	0.0	4.256730e-02	-2.869025e-02	0.0	3.666230e-02	-2.564771e-02	0.0	3.094978e-02	-2.271591e-02	0.0	2.541073e-02	-1.992269e-02	0.0	2.010719e-02	-1.714046e-02	0.0	1.508174e-02	-1.427969e-02	0.0	1.044388e-02	-1.118806e-02	0.0	6.154197e-03	-7.954783e-03	0.0	2.422740e-03	-4.350203e-03	0.0	
CELLS 198	594
2	14	15	2	15	16	2	16	17	2	17	18	2	18	19	2	19	20	2	20	21	2	21	22	2	22	23	2	23	24	2	24	25	2	25	26	2	26	27	2	27	28	2	28	29	2	29	30	2	30	31	2	31	32	2	32	33	2	33	34	2	34	35	2	35	36	2	36	37	2	37	38	2	38	39	2	39	40	2	40	41	2	41	42	2	42	43	2	43	44	2	44	45	2	45	46	2	46	47	2	47	48	2	48	49	2	49	50	2	50	51	2	51	52	2	52	53	2	53	54	2	54	55	2	55	56	2	56	57	2	57	58	2	58	59	2	59	60	2	60	61	2	61	62	2	62	63	2	63	64	2	64	65	2	65	66	2	66	67	2	67	68	2	68	69	2	69	70	2	70	71	2	71	72	2	72	73	2	73	74	2	74	75	2	75	76	2	76	77	2	77	78	2	78	79	2	79	80	2	80	81	2	81	82	2	82	83	2	83	84	2	84	85	2	85	86	2	86	87	2	0	1	2	1	2	2	2	3	2	3	4	2	4	5	2	5	6	2	6	7	2	7	8	2	8	9	2	9	10	2	10	11	2	11	12	2	12	13	2	13	14	2	145	146	2	146	147	2	147	148	2	148	149	2	149	150	2	150	151	2	151	152	2	152	153	2	153	154	2	154	155	2	155	156	2	156	157	2	157	158	2	158	159	2	159	160	2	160	161	2	161	162	2	162	163	2	163	164	2	164	165	2	165	166	2	166	167	2	167	168	2	168	169	2	169	170	2	170	171	2	171	172	2	172	173	2	173	174	2	174	175	2	175	176	2	176	177	2	177	178	2	178	179	2	179	180	2	180	181	2	181	182	2	182	183	2	183	184	2	184	185	2	185	186	2	186	187	2	187	188	2	188	189	2	189	190	2	190	191	2	191	192	2	192	193	2	193	194	2	194	195	2	195	196	2	196	197	2	197	0	2	87	88	2	88	89	2	89	90	2	90	91	2	91	92	2	92	93	2	93	94	2	94	95	2	95	96	2	96	97	2	97	98	2	98	99	2	99	100	2	100	101	2	101	102	2	102	103	2	103	104	2	104	105	2	105	106	2	106	107	2	107	108	2	108	109	2	109	110	2	110	111	2	111	112	2	112	113	2	113	114	2	114	115	2	115	116	2	116	117	2	117	118	2	118	119	2	119	120	2	120	121	2	121	122	2	122	123	2	123	124	2	124	125	2	125	126	2	126	127	2	127	128	2	128	129	2	129	130	2	130	131	2	131	132	2	132	133	2	133	134	2	134	135	2	135	136	2	136	137	2	137	138	2	138	139	2	139	140	2	140	141	2	141	142	2	142	143	2	143	144	2	144	145	
CELL_TYPES 198
3	3	3	3	3	3	3	3	3	3	3	3	3	3	3	3	3	3	3	3	3	3	3	3	3	3	3	3	3	3	3	3	3	3	3	3	3	3	3	3	3	3	3	3	3	3	3	3	3	3	3	3	3	3	3	3	3	3	3	3	3	3	3	3	3	3	3	3	3	3	3	3	3	3	3	3	3	3	3	3	3	3	3	3	3	3	3	3	3	3	3	3	3	3	3	3	3	3	3	3	3	3	3	3	3	3	3	3	3	3	3	3	3	3	3	3	3	3	3	3	3	3	3	3	3	3	3	3	3	3	3	3	3	3	3	3	3	3	3	3	3	3	3	3	3	3	3	3	3	3	3	3	3	3	3	3	3	3	3	3	3	3	3	3	3	3	3	3	3	3	3	3	3	3	3	3	3	3	3	3	3	3	3	3	3	3	3	3	3	3	3	3	3	3	3	3	3	3	
POINT_DATA 198

SCALARS Density double 1
LOOKUP_TABLE default
1.549861e+00	1.289609e+00	1.267435e+00	1.183736e+00	1.189499e+00	1.202776e+00	1.246443e+00	1.269859e+00	1.296047e+00	1.310505e+00	1.321134e+00	1.325274e+00	1.319535e+00	1.302512e+00	1.268978e+00	1.205827e+00	1.139394e+00	1.040161e+00	9.575040e-01	8.702114e-01	7.897704e-01	7.387937e-01	6.815000e-01	6.526255e-01	6.155135e-01	6.008206e-01	5.732038e-01	5.451856e-01	5.394436e-01	5.259729e-01	5.191377e-01	5.200641e-01	5.212869e-01	5.319049e-01	5.471079e-01	5.626545e-01	5.883348e-01	6.222196e-01	6.880931e-01	9.319731e-01	1.177960e+00	1.207554e+00	1.199318e+00	1.187099e+00	1.186046e+00	1.178394e+00	1.167339e+00	1.155352e+00	1.137227e+00	1.117684e+00	1.099589e+00	1.072166e+00	1.050957e+00	1.035604e+00	1.011038e+00	1.001783e+00	9.850743e-01	9.787805e-01	9.904330e-01	9.938384e-01	1.010238e+00	1.016578e+00	1.032153e+00	1.062280e+00	1.076004e+00	1.096270e+00	1.113777e+00	1.129563e+00	1.149966e+00	1.163058e+00	1.176164e+00	1.189303e+00	1.198935e+00	1.207806e+00	1.215735e+00	1.222668e+00	1.229373e+00	1.234870e+00	1.240328e+00	1.244702e+00	1.248682e+00	1.252498e+00	1.255851e+00	1.259159e+00	1.262756e+00	1.265695e+00	1.269207e+00	1.273177e+00	1.276484e+00	1.281307e+00	1.285384e+00	1.290278e+00	1.295818e+00	1.301356e+00	1.307968e+00	1.315495e+00	1.323726e+00	1.338379e+00	1.356472e+00	1.341381e+00	1.425900e+00	1.399346e+00	1.401718e+00	1.402089e+00	1.403039e+00	1.404141e+00	1.404583e+00	1.406341e+00	1.406517e+00	1.407449e+00	1.408349e+00	1.406787e+00	1.408197e+00	1.406806e+00	1.407351e+00	1.407626e+00	1.406901e+00	1.408618e+00	1.408966e+00	1.412817e+00	1.414430e+00	1.421045e+00	1.424181e+00	1.425942e+00	1.429089e+00	1.423394e+00	1.423680e+00	1.412909e+00	1.398994e+00	1.386678e+00	1.362713e+00	1.340872e+00	1.319208e+00	1.287900e+00	1.257556e+00	1.235854e+00	1.190938e+00	1.164949e+00	1.148910e+00	1.120710e+00	1.108823e+00	1.080431e+00	1.073155e+00	1.079105e+00	1.076518e+00	1.091526e+00	1.096870e+00	1.113856e+00	1.137053e+00	1.150400e+00	1.169956e+00	1.184772e+00	1.197555e+00	1.210837e+00	1.220148e+00	1.227531e+00	1.234740e+00	1.239752e+00	1.244832e+00	1.249016e+00	1.251651e+00	1.255924e+00	1.257046e+00	1.260570e+00	1.262241e+00	1.260498e+00	1.262260e+00	1.257546e+00	1.254533e+00	1.247898e+00	1.227025e+00	1.210830e+00	1.197895e+00	1.115278e+00	9.276723e-01	8.078014e-01	7.789873e-01	8.391112e-01	8.867481e-01	9.717498e-01	1.110554e+00	1.152822e+00	1.234248e+00	1.305377e+00	1.346187e+00	1.397424e+00	1.437928e+00	1.463887e+00	1.488862e+00	1.506089e+00	1.516119e+00	1.528112e+00	1.538689e+00	1.550900e+00	1.572040e+00	1.597903e+00	1.613075e+00	1.699523e+00	
VECTORS Momentum double
1.839647e+01	1.890420e+02	0.0	1.616540e+02	1.945606e+02	0.0	2.108862e+02	1.913322e+02	0.0	2.488323e+02	1.590627e+02	0.0	2.678749e+02	1.406680e+02	0.0	2.753897e+02	1.170321e+02	0.0	2.746634e+02	1.077106e+02	0.0	2.731395e+02	9.946734e+01	0.0	2.690026e+02	9.841206e+01	0.0	2.648429e+02	9.897923e+01	0.0	2.614916e+02	1.025452e+02	0.0	2.589188e+02	1.087973e+02	0.0	2.586954e+02	1.173743e+02	0.0	2.611327e+02	1.280382e+02	0.0	2.680182e+02	1.397113e+02	0.0	2.781096e+02	1.422702e+02	0.0	2.902479e+02	1.426014e+02	0.0	2.994126e+02	1.269810e+02	0.0	3.064045e+02	1.114697e+02	0.0	3.061061e+02	8.956519e+01	0.0	2.992093e+02	6.596572e+01	0.0	2.955330e+02	5.062460e+01	0.0	2.844271e+02	3.343644e+01	0.0	2.799019e+02	2.434566e+01	0.0	2.708651e+02	1.212227e+01	0.0	2.680954e+02	5.763887e+00	0.0	2.609020e+02	-2.769186e+00	0.0	2.518959e+02	-1.127429e+01	0.0	2.509124e+02	-1.478873e+01	0.0	2.464679e+02	-1.999629e+01	0.0	2.439965e+02	-2.331303e+01	0.0	2.445473e+02	-2.480492e+01	0.0	2.445459e+02	-2.619820e+01	0.0	2.483314e+02	-2.562759e+01	0.0	2.531511e+02	-2.357820e+01	0.0	2.578905e+02	-2.234586e+01	0.0	2.657518e+02	-1.698170e+01	0.0	2.742247e+02	-1.217307e+01	0.0	2.858519e+02	-8.544999e+00	0.0	2.959733e+02	-3.070902e+00	0.0	2.916994e+02	9.564378e-01	0.0	2.936930e+02	5.075832e+00	0.0	2.961458e+02	1.101811e+01	0.0	2.958471e+02	1.289031e+01	0.0	2.964294e+02	1.680589e+01	0.0	2.986219e+02	1.963130e+01	0.0	2.994232e+02	2.133050e+01	0.0	3.010111e+02	2.341672e+01	0.0	3.034837e+02	2.331648e+01	0.0	3.054483e+02	2.216980e+01	0.0	3.083545e+02	2.192635e+01	0.0	3.099859e+02	1.808927e+01	0.0	3.109014e+02	1.385662e+01	0.0	3.134601e+02	1.081797e+01	0.0	3.125540e+02	4.141626e+00	0.0	3.140292e+02	9.621780e-01	0.0	3.137067e+02	-5.533323e+00	0.0	3.123293e+02	-1.250773e+01	0.0	3.135654e+02	-1.567534e+01	0.0	3.114846e+02	-2.196614e+01	0.0	3.123570e+02	-2.521750e+01	0.0	3.111702e+02	-3.141266e+01	0.0	3.084560e+02	-3.777703e+01	0.0	3.083043e+02	-3.994827e+01	0.0	3.055344e+02	-4.455918e+01	0.0	3.036023e+02	-4.712307e+01	0.0	3.014930e+02	-4.969474e+01	0.0	2.982706e+02	-5.246781e+01	0.0	2.959565e+02	-5.284642e+01	0.0	2.933918e+02	-5.384311e+01	0.0	2.907234e+02	-5.423774e+01	0.0	2.885316e+02	-5.374637e+01	0.0	2.864698e+02	-5.332471e+01	0.0	2.846243e+02	-5.276511e+01	0.0	2.829180e+02	-5.213103e+01	0.0	2.812890e+02	-5.151611e+01	0.0	2.798940e+02	-5.075158e+01	0.0	2.784906e+02	-5.013600e+01	0.0	2.773695e+02	-4.937884e+01	0.0	2.762694e+02	-4.869569e+01	0.0	2.751908e+02	-4.823951e+01	0.0	2.741158e+02	-4.773917e+01	0.0	2.732707e+02	-4.753240e+01	0.0	2.722213e+02	-4.736673e+01	0.0	2.713161e+02	-4.719241e+01	0.0	2.702479e+02	-4.733147e+01	0.0	2.690257e+02	-4.753746e+01	0.0	2.679313e+02	-4.764290e+01	0.0	2.665104e+02	-4.806246e+01	0.0	2.652512e+02	-4.824482e+01	0.0	2.635451e+02	-4.854450e+01	0.0	2.617091e+02	-4.884937e+01	0.0	2.598546e+02	-4.897641e+01	0.0	2.577321e+02	-4.915944e+01	0.0	2.553778e+02	-4.924912e+01	0.0	2.524775e+02	-4.934629e+01	0.0	2.484443e+02	-4.913966e+01	0.0	2.446554e+02	-4.894900e+01	0.0	2.336773e+02	-4.759928e+01	0.0	2.103806e+02	-1.941755e+01	0.0	2.681926e+02	-1.272274e+01	0.0	2.584779e+02	-7.900318e+00	0.0	2.593519e+02	-5.697103e+00	0.0	2.590573e+02	-3.956726e+00	0.0	2.587180e+02	-2.149306e+00	0.0	2.582758e+02	-4.633763e-01	0.0	2.578588e+02	1.326535e+00	0.0	2.574577e+02	2.844803e+00	0.0	2.569114e+02	4.872847e+00	0.0	2.567283e+02	6.538763e+00	0.0	2.565124e+02	8.349099e+00	0.0	2.564791e+02	1.053901e+01	0.0	2.565784e+02	1.161714e+01	0.0	2.562498e+02	1.355682e+01	0.0	2.563882e+02	1.469300e+01	0.0	2.560865e+02	1.609686e+01	0.0	2.558879e+02	1.759198e+01	0.0	2.555994e+02	1.827422e+01	0.0	2.547880e+02	1.957586e+01	0.0	2.536955e+02	2.037331e+01	0.0	2.519171e+02	2.245078e+01	0.0	2.501418e+02	2.411360e+01	0.0	2.474899e+02	2.820717e+01	0.0	2.460412e+02	3.315364e+01	0.0	2.448695e+02	3.833762e+01	0.0	2.443255e+02	4.585862e+01	0.0	2.453598e+02	5.133144e+01	0.0	2.460263e+02	5.996512e+01	0.0	2.507230e+02	6.718224e+01	0.0	2.562477e+02	7.249988e+01	0.0	2.613473e+02	7.882159e+01	0.0	2.693728e+02	8.174382e+01	0.0	2.766098e+02	8.296279e+01	0.0	2.832571e+02	8.443952e+01	0.0	2.918839e+02	8.303064e+01	0.0	2.984801e+02	7.907532e+01	0.0	3.023658e+02	7.762808e+01	0.0	3.111827e+02	6.984266e+01	0.0	3.157307e+02	6.203184e+01	0.0	3.167951e+02	5.762650e+01	0.0	3.211406e+02	4.934983e+01	0.0	3.211729e+02	4.522065e+01	0.0	3.244062e+02	3.681605e+01	0.0	3.251874e+02	2.842190e+01	0.0	3.240697e+02	2.431353e+01	0.0	3.255262e+02	1.674105e+01	0.0	3.233734e+02	1.286759e+01	0.0	3.236560e+02	6.964065e+00	0.0	3.221854e+02	1.666097e+00	0.0	3.193299e+02	-7.373664e-02	0.0	3.181916e+02	-3.434713e+00	0.0	3.156172e+02	-4.789273e+00	0.0	3.134520e+02	-5.744544e+00	0.0	3.117017e+02	-6.550355e+00	0.0	3.096534e+02	-6.187537e+00	0.0	3.079132e+02	-5.836085e+00	0.0	3.065656e+02	-5.610940e+00	0.0	3.052938e+02	-4.976366e+00	0.0	3.043728e+02	-4.484328e+00	0.0	3.031431e+02	-3.847061e+00	0.0	3.020886e+02	-2.992638e+00	0.0	3.014706e+02	-2.486451e+00	0.0	3.002364e+02	-1.191619e+00	0.0	2.997070e+02	-3.275420e-01	0.0	2.986266e+02	1.182129e+00	0.0	2.979004e+02	3.249356e+00	0.0	2.977147e+02	4.484472e+00	0.0	2.972426e+02	7.537234e+00	0.0	2.983178e+02	9.695403e+00	0.0	2.993039e+02	1.265112e+01	0.0	3.013637e+02	1.667276e+01	0.0	3.056680e+02	1.743479e+01	0.0	3.078966e+02	1.628566e+01	0.0	3.094408e+02	1.504617e+01	0.0	3.123645e+02	9.455805e+00	0.0	3.070876e+02	-3.228848e+00	0.0	3.048187e+02	-1.335667e+01	0.0	3.176250e+02	-3.701566e+01	0.0	3.147816e+02	-5.395317e+01	0.0	3.177564e+02	-8.016101e+01	0.0	3.158602e+02	-1.124454e+02	0.0	3.040546e+02	-1.188381e+02	0.0	2.914893e+02	-1.374236e+02	0.0	2.734149e+02	-1.447550e+02	0.0	2.572743e+02	-1.414789e+02	0.0	2.419367e+02	-1.420107e+02	0.0	2.270037e+02	-1.350579e+02	0.0	2.160120e+02	-1.250588e+02	0.0	2.062001e+02	-1.169096e+02	0.0	1.980503e+02	-1.071395e+02	0.0	1.924332e+02	-9.883185e+01	0.0	1.855182e+02	-9.439442e+01	0.0	1.765702e+02	-9.083146e+01	0.0	1.626094e+02	-8.877882e+01	0.0	1.410310e+02	-8.667978e+01	0.0	1.078365e+02	-7.582281e+01	0.0	6.412805e+01	-5.202066e+01	0.0	-1.652652e+01	1.640269e+01	0.0	
SCALARS Energy double 1
LOOKUP_TABLE default
3.394298e+05	2.867541e+05	2.839962e+05	2.672321e+05	2.689504e+05	2.714697e+05	2.802809e+05	2.848891e+05	2.901058e+05	2.929115e+05	2.950334e+05	2.959028e+05	2.948926e+05	2.917411e+05	2.854761e+05	2.730581e+05	2.602024e+05	2.400973e+05	2.235064e+05	2.054142e+05	1.882515e+05	1.775997e+05	1.649833e+05	1.588082e+05	1.505433e+05	1.473923e+05	1.412723e+05	1.348893e+05	1.337147e+05	1.306707e+05	1.291131e+05	1.293781e+05	1.296237e+05	1.320886e+05	1.355251e+05	1.390308e+05	1.448056e+05	1.522344e+05	1.662001e+05	2.155379e+05	2.657728e+05	2.720789e+05	2.705465e+05	2.679886e+05	2.678252e+05	2.664052e+05	2.641779e+05	2.618221e+05	2.582584e+05	2.543700e+05	2.508735e+05	2.453580e+05	2.410768e+05	2.381525e+05	2.330606e+05	2.313105e+05	2.279006e+05	2.265200e+05	2.290037e+05	2.295405e+05	2.329681e+05	2.342017e+05	2.372001e+05	2.433646e+05	2.460010e+05	2.500390e+05	2.535106e+05	2.565580e+05	2.606108e+05	2.631510e+05	2.656874e+05	2.682605e+05	2.701195e+05	2.718372e+05	2.733704e+05	2.747041e+05	2.760059e+05	2.770582e+05	2.781207e+05	2.789596e+05	2.797207e+05	2.804482e+05	2.810970e+05	2.817246e+05	2.824224e+05	2.829761e+05	2.836423e+05	2.844122e+05	2.850273e+05	2.859696e+05	2.867311e+05	2.876585e+05	2.887212e+05	2.897707e+05	2.910354e+05	2.924665e+05	2.939865e+05	2.968870e+05	3.001554e+05	2.956471e+05	3.164447e+05	3.102907e+05	3.108367e+05	3.108979e+05	3.110802e+05	3.112903e+05	3.113623e+05	3.117147e+05	3.117252e+05	3.119151e+05	3.120975e+05	3.117687e+05	3.120753e+05	3.117682e+05	3.118943e+05	3.119412e+05	3.117823e+05	3.121340e+05	3.121708e+05	3.129350e+05	3.131954e+05	3.145180e+05	3.150733e+05	3.154062e+05	3.160547e+05	3.148810e+05	3.150460e+05	3.128886e+05	3.102674e+05	3.080226e+05	3.033311e+05	2.992257e+05	2.951158e+05	2.889862e+05	2.831764e+05	2.790297e+05	2.699577e+05	2.651051e+05	2.620275e+05	2.562544e+05	2.540614e+05	2.482129e+05	2.469152e+05	2.481222e+05	2.474700e+05	2.506151e+05	2.515092e+05	2.549934e+05	2.596245e+05	2.621399e+05	2.660819e+05	2.689449e+05	2.714276e+05	2.740514e+05	2.758336e+05	2.772416e+05	2.786443e+05	2.795968e+05	2.805895e+05	2.813753e+05	2.818512e+05	2.826996e+05	2.828487e+05	2.835480e+05	2.838239e+05	2.834120e+05	2.837686e+05	2.827563e+05	2.822041e+05	2.808941e+05	2.767001e+05	2.736413e+05	2.711141e+05	2.541546e+05	2.162153e+05	1.918597e+05	1.860042e+05	1.993794e+05	2.087333e+05	2.265229e+05	2.552962e+05	2.632086e+05	2.796806e+05	2.935597e+05	3.010837e+05	3.110924e+05	3.187623e+05	3.235399e+05	3.282673e+05	3.314214e+05	3.331967e+05	3.354385e+05	3.373423e+05	3.394915e+05	3.434046e+05	3.480766e+05	3.504170e+05	3.686061e+05	
SCALARS Pressure double 1
LOOKUP_TABLE default
1.311166e+05	1.047784e+05	1.008040e+05	9.215670e+04	9.218806e+04	9.369964e+04	9.814599e+04	1.006472e+05	1.033812e+05	1.049649e+05	1.060701e+05	1.064578e+05	1.057254e+05	1.037086e+05	9.979255e+04	9.303755e+04	8.572402e+04	7.570131e+04	6.719707e+04	5.878680e+04	5.152718e+04	4.670218e+04	4.192384e+04	3.933246e+04	3.633000e+04	3.502019e+04	3.275556e+04	3.063205e+04	3.006333e+04	2.901756e+04	2.850000e+04	2.851618e+04	2.864189e+04	2.940069e+04	3.057984e+04	3.179421e+04	3.381611e+04	3.667488e+04	4.270875e+04	6.741428e+04	9.186220e+04	9.454128e+04	9.357299e+04	9.242134e+04	9.226508e+04	9.136164e+04	9.023275e+04	8.894905e+04	8.701004e+04	8.496503e+04	8.296775e+04	8.015748e+04	7.799957e+04	7.626257e+04	7.389615e+04	7.283625e+04	7.117341e+04	7.064315e+04	7.169725e+04	7.219428e+04	7.374570e+04	7.443698e+04	7.616729e+04	7.914962e+04	8.067987e+04	8.279449e+04	8.463830e+04	8.638359e+04	8.852508e+04	8.995972e+04	9.140256e+04	9.281856e+04	9.388380e+04	9.485930e+04	9.573331e+04	9.650477e+04	9.723850e+04	9.785502e+04	9.844971e+04	9.893886e+04	9.938595e+04	9.981703e+04	1.001864e+05	1.005630e+05	1.009572e+05	1.012959e+05	1.016961e+05	1.021314e+05	1.025203e+05	1.030423e+05	1.035187e+05	1.040770e+05	1.046963e+05	1.053282e+05	1.060709e+05	1.069250e+05	1.079039e+05	1.094522e+05	1.116771e+05	1.116035e+05	1.164665e+05	1.145585e+05	1.147328e+05	1.147840e+05	1.148900e+05	1.150147e+05	1.150769e+05	1.152582e+05	1.153013e+05	1.153942e+05	1.154850e+05	1.153396e+05	1.154611e+05	1.153460e+05	1.153854e+05	1.154218e+05	1.153607e+05	1.155303e+05	1.155991e+05	1.160042e+05	1.162334e+05	1.169190e+05	1.173160e+05	1.175176e+05	1.178247e+05	1.172692e+05	1.171911e+05	1.160785e+05	1.144750e+05	1.129804e+05	1.103961e+05	1.078705e+05	1.054030e+05	1.020275e+05	9.862466e+04	9.618233e+04	9.161762e+04	8.857988e+04	8.678805e+04	8.399922e+04	8.258336e+04	7.981201e+04	7.890040e+04	7.950018e+04	7.936690e+04	8.077831e+04	8.150644e+04	8.317954e+04	8.559100e+04	8.712795e+04	8.912311e+04	9.075832e+04	9.215674e+04	9.356543e+04	9.461019e+04	9.544373e+04	9.622957e+04	9.679874e+04	9.734819e+04	9.783283e+04	9.815710e+04	9.860592e+04	9.879740e+04	9.916782e+04	9.939926e+04	9.928224e+04	9.946055e+04	9.904179e+04	9.867913e+04	9.797459e+04	9.583142e+04	9.397346e+04	9.257353e+04	8.444999e+04	6.543108e+04	5.339327e+04	5.050068e+04	5.537936e+04	6.048829e+04	6.850573e+04	8.187423e+04	8.679460e+04	9.504398e+04	1.027600e+05	1.076260e+05	1.131733e+05	1.178005e+05	1.209043e+05	1.237594e+05	1.258355e+05	1.271053e+05	1.285047e+05	1.298121e+05	1.313703e+05	1.338755e+05	1.370555e+05	1.393214e+05	1.473786e+05	
SCALARS Temperature double 1
LOOKUP_TABLE default
2.947103e+02	2.830374e+02	2.770655e+02	2.712079e+02	2.699858e+02	2.713836e+02	2.743030e+02	2.761065e+02	2.778760e+02	2.790204e+02	2.796897e+02	2.798350e+02	2.791188e+02	2.773726e+02	2.739520e+02	2.687842e+02	2.620950e+02	2.535322e+02	2.444782e+02	2.353344e+02	2.272824e+02	2.202137e+02	2.143017e+02	2.099508e+02	2.056166e+02	2.030505e+02	1.990702e+02	1.957321e+02	1.941429e+02	1.921887e+02	1.912461e+02	1.910138e+02	1.914059e+02	1.925546e+02	1.947119e+02	1.968505e+02	2.002301e+02	2.053314e+02	2.162221e+02	2.519874e+02	2.716670e+02	2.727377e+02	2.717982e+02	2.712161e+02	2.709980e+02	2.700871e+02	2.692759e+02	2.681992e+02	2.665339e+02	2.648205e+02	2.628508e+02	2.604428e+02	2.585459e+02	2.565359e+02	2.546154e+02	2.532820e+02	2.516976e+02	2.514288e+02	2.521783e+02	2.530564e+02	2.542983e+02	2.550812e+02	2.570719e+02	2.595613e+02	2.612050e+02	2.630961e+02	2.647275e+02	2.664104e+02	2.681710e+02	2.694494e+02	2.707203e+02	2.718770e+02	2.727881e+02	2.735981e+02	2.743182e+02	2.749606e+02	2.755402e+02	2.760529e+02	2.765084e+02	2.769057e+02	2.772705e+02	2.776246e+02	2.779078e+02	2.782198e+02	2.785148e+02	2.788003e+02	2.791271e+02	2.794480e+02	2.797853e+02	2.801513e+02	2.805538e+02	2.809970e+02	2.814608e+02	2.819543e+02	2.825072e+02	2.831525e+02	2.839680e+02	2.848890e+02	2.868028e+02	2.898384e+02	2.845393e+02	2.851888e+02	2.851393e+02	2.851912e+02	2.852614e+02	2.853468e+02	2.854113e+02	2.855036e+02	2.855745e+02	2.856153e+02	2.856576e+02	2.856147e+02	2.856291e+02	2.856265e+02	2.856134e+02	2.856478e+02	2.856437e+02	2.857149e+02	2.858145e+02	2.860342e+02	2.862725e+02	2.866209e+02	2.869606e+02	2.870989e+02	2.872151e+02	2.870049e+02	2.867560e+02	2.861987e+02	2.850526e+02	2.838298e+02	2.822148e+02	2.802501e+02	2.783364e+02	2.759722e+02	2.732048e+02	2.711181e+02	2.679910e+02	2.648857e+02	2.631504e+02	2.611034e+02	2.594542e+02	2.573366e+02	2.561222e+02	2.566460e+02	2.568316e+02	2.578048e+02	2.588614e+02	2.601463e+02	2.622272e+02	2.638389e+02	2.653696e+02	2.668592e+02	2.680785e+02	2.691907e+02	2.701193e+02	2.708602e+02	2.714960e+02	2.719977e+02	2.724254e+02	2.728645e+02	2.731924e+02	2.735079e+02	2.737945e+02	2.740528e+02	2.743288e+02	2.743846e+02	2.744937e+02	2.743625e+02	2.740145e+02	2.735047e+02	2.720727e+02	2.703661e+02	2.692144e+02	2.637830e+02	2.457083e+02	2.302567e+02	2.258381e+02	2.299105e+02	2.376301e+02	2.455855e+02	2.568253e+02	2.622773e+02	2.682579e+02	2.742321e+02	2.785109e+02	2.821280e+02	2.853911e+02	2.877163e+02	2.895703e+02	2.910603e+02	2.920523e+02	2.929505e+02	2.938967e+02	2.950827e+02	2.966660e+02	2.987973e+02	3.008802e+02	3.020909e+02	
SCALARS Mach double 1
LOOKUP_TABLE default
3.560948e-01	5.815848e-01	6.732771e-01	7.556998e-01	7.722050e-01	7.533098e-01	7.128971e-01	6.871996e-01	6.613587e-01	6.442777e-01	6.341418e-01	6.319260e-01	6.427953e-01	6.687783e-01	7.178296e-01	7.882384e-01	8.745204e-01	9.795339e-01	1.086366e+00	1.191771e+00	1.283655e+00	1.364244e+00	1.431937e+00	1.482077e+00	1.532400e+00	1.562406e+00	1.609314e+00	1.649041e+00	1.668090e+00	1.691644e+00	1.703057e+00	1.705876e+00	1.701121e+00	1.687222e+00	1.661259e+00	1.635689e+00	1.595596e+00	1.535726e+00	1.409902e+00	9.980085e-01	7.494459e-01	7.347344e-01	7.476521e-01	7.555887e-01	7.585506e-01	7.708448e-01	7.816998e-01	7.959777e-01	8.177887e-01	8.399145e-01	8.649913e-01	8.951857e-01	9.186520e-01	9.432443e-01	9.665060e-01	9.825338e-01	1.001461e+00	1.004660e+00	9.957318e-01	9.852367e-01	9.703264e-01	9.608841e-01	9.367112e-01	9.061228e-01	8.856796e-01	8.618881e-01	8.411073e-01	8.193943e-01	7.963496e-01	7.793854e-01	7.623108e-01	7.465735e-01	7.340376e-01	7.227813e-01	7.126823e-01	7.035969e-01	6.953338e-01	6.879715e-01	6.813880e-01	6.756104e-01	6.702760e-01	6.650702e-01	6.608879e-01	6.562594e-01	6.518618e-01	6.475876e-01	6.426695e-01	6.378155e-01	6.326844e-01	6.270848e-01	6.208839e-01	6.140059e-01	6.067483e-01	5.989548e-01	5.901355e-01	5.797158e-01	5.663441e-01	5.509496e-01	5.178371e-01	4.614969e-01	5.568340e-01	5.458659e-01	5.467087e-01	5.458258e-01	5.446302e-01	5.431731e-01	5.420706e-01	5.404893e-01	5.392718e-01	5.385703e-01	5.378440e-01	5.385808e-01	5.383334e-01	5.383789e-01	5.386036e-01	5.380113e-01	5.380824e-01	5.368566e-01	5.351376e-01	5.313307e-01	5.271756e-01	5.210559e-01	5.150327e-01	5.125649e-01	5.104832e-01	5.142430e-01	5.186662e-01	5.284646e-01	5.481806e-01	5.686282e-01	5.948115e-01	6.255664e-01	6.545232e-01	6.891346e-01	7.282599e-01	7.569198e-01	7.987217e-01	8.390783e-01	8.612001e-01	8.869500e-01	9.074485e-01	9.334795e-01	9.482727e-01	9.419028e-01	9.396429e-01	9.277502e-01	9.147668e-01	8.988710e-01	8.728572e-01	8.524568e-01	8.328565e-01	8.135534e-01	7.975698e-01	7.828353e-01	7.704124e-01	7.604179e-01	7.517789e-01	7.449197e-01	7.390430e-01	7.329804e-01	7.284321e-01	7.240399e-01	7.200363e-01	7.164144e-01	7.125335e-01	7.117475e-01	7.102082e-01	7.120581e-01	7.169529e-01	7.240853e-01	7.438920e-01	7.670912e-01	7.825186e-01	8.531689e-01	1.072031e+00	1.249760e+00	1.300110e+00	1.253708e+00	1.165459e+00	1.073463e+00	9.397192e-01	8.722268e-01	7.952034e-01	7.138944e-01	6.519200e-01	5.961950e-01	5.424159e-01	5.014279e-01	4.666969e-01	4.371445e-01	4.164880e-01	3.969902e-01	3.754931e-01	3.468895e-01	3.049676e-01	2.380729e-01	1.472129e-01	3.932099e-02	
SCALARS Pressure_Coefficient double 1
LOOKUP_TABLE default